<?xml version="1.0"?>
<VTKFile type="UnstructuredGrid"  version="0.1"  >
<UnstructuredGrid>
<Piece  NumberOfPoints="17709" NumberOfCells="93714">
<Points>
<DataArray  type="Float64"  NumberOfComponents="3"  format="ascii">0 0 0.175  0 0 0.2  0.025 0 0.2  0.025 0.025 0.2  0 0.025 0.2  0.05 0 0.175  0.075 0 0.175  0.075 0 0.2  0.075 0.025 0.2  0.05 0 0.2  0.05 0.025 0.2  0.1 0 0.175  0.1 0 0.2  0.1 0.025 0.2  0.125 0 0.175  0.125 0 0.2  0.125 0.025 0.2  0.15 0 0.175  0.15 0 0.2  0.15 0.025 0.2  0.175 0 0.2  0.175 0.025 0.2  0.025 0.025 0.225  0.025 0 0.225  0 0 0.225  0 0.025 0.225  0.05 0.025 0.225  0.05 0 0.225  0.075 0.025 0.225  0.075 0 0.225  0.1 0.025 0.225  0.1 0 0.225  0.125 0.025 0.225  0.125 0 0.225  0.15 0.025 0.225  0.15 0 0.225  0.175 0.025 0.225  0.175 0 0.225  0.2 0 0.2  0.2 0.025 0.2  0.2 0.025 0.225  0.2 0 0.225  0.225 0 0.2  0.225 0.025 0.2  0.225 0.025 0.225  0.225 0 0.225  0.25 0 0.2  0.25 0.025 0.2  0.25 0.025 0.225  0.25 0 0.225  0.275 0.025 0.225  0.025 0.05 0.2  0.025 0.05 0.225  0 0.05 0.2  0 0.05 0.225  0.05 0.05 0.225  0.075 0.05 0.225  0.1 0.05 0.225  0.125 0.05 0.225  0.15 0.05 0.225  0.175 0.05 0.2  0.175 0.05 0.225  0.2 0.05 0.2  0.2 0.05 0.225  0.225 0.05 0.2  0.225 0.05 0.225  0.25 0.05 0.225  0.275 0.05 0.225  0.025 0.075 0.225  0 0.075 0.225  0.05 0.075 0.225  0.2 0.075 0.225  0.175 0.075 0.225  0.225 0.075 0.225  0.25 0.075 0.225  0.025 0.025 0.25  0.025 0 0.25  0 0 0.25  0 0.025 0.25  0.05 0.025 0.25  0.05 0 0.25  0.075 0.025 0.25  0.075 0 0.25  0.1 0.025 0.25  0.1 0 0.25  0.125 0.025 0.25  0.125 0 0.25  0.15 0.025 0.25  0.15 0 0.25  0.175 0.025 0.25  0.175 0 0.25  0.2 0.025 0.25  0.2 0 0.25  0.225 0.025 0.25  0.225 0 0.25  0.25 0.025 0.25  0.25 0 0.25  0.275 0 0.25  0.275 0.025 0.25  0.025 0.05 0.25  0 0.05 0.25  0.05 0.05 0.25  0.075 0.05 0.25  0.1 0.05 0.25  0.125 0.05 0.25  0.15 0.05 0.25  0.175 0.05 0.25  0.2 0.05 0.25  0.225 0.05 0.25  0.25 0.05 0.25  0.275 0.05 0.25  0.025 0.075 0.25  0 0.075 0.25  0.05 0.075 0.25  0.075 0.075 0.225  0.075 0.075 0.25  0.1 0.075 0.225  0.1 0.075 0.25  0.125 0.075 0.225  0.125 0.075 0.25  0.15 0.075 0.225  0.15 0.075 0.25  0.175 0.075 0.25  0.2 0.075 0.25  0.225 0.075 0.25  0.25 0.075 0.25  0.275 0.075 0.225  0.275 0.075 0.25  0.3 0.075 0.25  0.025 0.1 0.25  0 0.1 0.25  0 0.1 0.225  0.05 0.1 0.25  0.075 0.1 0.25  0.1 0.1 0.25  0.125 0.1 0.25  0.15 0.1 0.25  0.175 0.1 0.25  0.2 0.1 0.25  0.225 0.1 0.25  0.25 0.1 0.25  0.275 0.1 0.25  0.3 0.1 0.25  0.025 0.125 0.25  0 0.125 0.25  0.025 0.025 0.275  0.025 0 0.275  0 0 0.275  0 0.025 0.275  0.05 0.025 0.275  0.05 0 0.275  0.075 0.025 0.275  0.075 0 0.275  0.1 0.025 0.275  0.1 0 0.275  0.125 0.025 0.275  0.125 0 0.275  0.15 0.025 0.275  0.15 0 0.275  0.175 0.025 0.275  0.175 0 0.275  0.2 0.025 0.275  0.2 0 0.275  0.225 0.025 0.275  0.225 0 0.275  0.25 0.025 0.275  0.25 0 0.275  0.275 0.025 0.275  0.275 0 0.275  0.025 0.05 0.275  0 0.05 0.275  0.05 0.05 0.275  0.075 0.05 0.275  0.1 0.05 0.275  0.125 0.05 0.275  0.15 0.05 0.275  0.175 0.05 0.275  0.2 0.05 0.275  0.225 0.05 0.275  0.25 0.05 0.275  0.275 0.05 0.275  0.3 0.05 0.275  0.025 0.075 0.275  0 0.075 0.275  0.05 0.075 0.275  0.075 0.075 0.275  0.1 0.075 0.275  0.125 0.075 0.275  0.15 0.075 0.275  0.175 0.075 0.275  0.2 0.075 0.275  0.225 0.075 0.275  0.25 0.075 0.275  0.275 0.075 0.275  0.3 0.075 0.275  0.025 0.1 0.275  0 0.1 0.275  0.05 0.1 0.275  0.075 0.1 0.275  0.1 0.1 0.275  0.125 0.1 0.275  0.15 0.1 0.275  0.175 0.1 0.275  0.2 0.1 0.275  0.225 0.1 0.275  0.25 0.1 0.275  0.275 0.1 0.275  0.3 0.1 0.275  0.025 0.125 0.275  0 0.125 0.275  0.05 0.125 0.25  0.05 0.125 0.275  0.075 0.125 0.25  0.075 0.125 0.275  0.1 0.125 0.25  0.1 0.125 0.275  0.125 0.125 0.25  0.125 0.125 0.275  0.15 0.125 0.25  0.15 0.125 0.275  0.175 0.125 0.275  0.2 0.125 0.275  0.225 0.125 0.275  0.25 0.125 0.275  0.275 0.125 0.25  0.275 0.125 0.275  0.3 0.125 0.275  0.025 0.15 0.275  0 0.15 0.275  0 0.15 0.25  0.05 0.15 0.275  0.075 0.15 0.275  0.1 0.15 0.275  0.125 0.15 0.275  0.15 0.15 0.275  0.175 0.15 0.275  0.3 0.15 0.275  0.275 0.15 0.275  0.025 0.175 0.275  0 0.175 0.275  0.025 0.025 0.3  0.025 0 0.3  0 0 0.3  0 0.025 0.3  0.05 0.025 0.3  0.05 0 0.3  0.075 0.025 0.3  0.075 0 0.3  0.1 0.025 0.3  0.1 0 0.3  0.125 0.025 0.3  0.125 0 0.3  0.15 0.025 0.3  0.15 0 0.3  0.175 0.025 0.3  0.175 0 0.3  0.2 0.025 0.3  0.2 0 0.3  0.225 0.025 0.3  0.225 0 0.3  0.25 0.025 0.3  0.25 0 0.3  0.275 0.025 0.3  0.275 0 0.3  0.025 0.05 0.3  0 0.05 0.3  0.05 0.05 0.3  0.075 0.05 0.3  0.1 0.05 0.3  0.125 0.05 0.3  0.15 0.05 0.3  0.175 0.05 0.3  0.2 0.05 0.3  0.225 0.05 0.3  0.25 0.05 0.3  0.275 0.05 0.3  0.3 0.05 0.3  0.025 0.075 0.3  0 0.075 0.3  0.05 0.075 0.3  0.075 0.075 0.3  0.1 0.075 0.3  0.125 0.075 0.3  0.15 0.075 0.3  0.175 0.075 0.3  0.2 0.075 0.3  0.225 0.075 0.3  0.25 0.075 0.3  0.275 0.075 0.3  0.3 0.075 0.3  0.025 0.1 0.3  0 0.1 0.3  0.05 0.1 0.3  0.075 0.1 0.3  0.1 0.1 0.3  0.125 0.1 0.3  0.15 0.1 0.3  0.175 0.1 0.3  0.2 0.1 0.3  0.225 0.1 0.3  0.25 0.1 0.3  0.275 0.1 0.3  0.3 0.1 0.3  0.025 0.125 0.3  0 0.125 0.3  0.05 0.125 0.3  0.075 0.125 0.3  0.1 0.125 0.3  0.125 0.125 0.3  0.15 0.125 0.3  0.175 0.125 0.3  0.2 0.125 0.3  0.225 0.125 0.3  0.25 0.125 0.3  0.275 0.125 0.3  0.3 0.125 0.3  0.325 0.125 0.3  0.025 0.15 0.3  0 0.15 0.3  0.05 0.15 0.3  0.075 0.15 0.3  0.1 0.15 0.3  0.125 0.15 0.3  0.15 0.15 0.3  0.175 0.15 0.3  0.2 0.15 0.3  0.225 0.15 0.275  0.225 0.15 0.3  0.25 0.15 0.275  0.25 0.15 0.3  0.275 0.15 0.3  0.3 0.15 0.3  0.325 0.15 0.3  0.025 0.175 0.3  0 0.175 0.3  0.05 0.175 0.3  0.075 0.175 0.3  0.1 0.175 0.3  0.125 0.175 0.3  0.15 0.175 0.3  0.175 0.175 0.3  0.2 0.175 0.3  0.25 0.175 0.3  0.225 0.175 0.3  0.275 0.175 0.3  0.3 0.175 0.3  0.325 0.175 0.3  0.025 0.2 0.3  0 0.2 0.3  0.05 0.2 0.3  0.025 0.025 0.325  0.025 0 0.325  0 0 0.325  0 0.025 0.325  0.05 0.025 0.325  0.05 0 0.325  0.075 0.025 0.325  0.075 0 0.325  0.1 0.025 0.325  0.1 0 0.325  0.125 0.025 0.325  0.125 0 0.325  0.15 0.025 0.325  0.15 0 0.325  0.175 0.025 0.325  0.175 0 0.325  0.2 0.025 0.325  0.2 0 0.325  0.225 0.025 0.325  0.225 0 0.325  0.25 0.025 0.325  0.25 0 0.325  0.275 0.025 0.325  0.275 0 0.325  0.3 0.025 0.325  0.025 0.05 0.325  0 0.05 0.325  0.05 0.05 0.325  0.075 0.05 0.325  0.1 0.05 0.325  0.125 0.05 0.325  0.15 0.05 0.325  0.175 0.05 0.325  0.2 0.05 0.325  0.225 0.05 0.325  0.25 0.05 0.325  0.275 0.05 0.325  0.3 0.05 0.325  0.025 0.075 0.325  0 0.075 0.325  0.05 0.075 0.325  0.075 0.075 0.325  0.1 0.075 0.325  0.125 0.075 0.325  0.15 0.075 0.325  0.175 0.075 0.325  0.2 0.075 0.325  0.225 0.075 0.325  0.25 0.075 0.325  0.275 0.075 0.325  0.3 0.075 0.325  0.025 0.1 0.325  0 0.1 0.325  0.05 0.1 0.325  0.075 0.1 0.325  0.1 0.1 0.325  0.125 0.1 0.325  0.15 0.1 0.325  0.175 0.1 0.325  0.2 0.1 0.325  0.225 0.1 0.325  0.25 0.1 0.325  0.275 0.1 0.325  0.3 0.1 0.325  0.025 0.125 0.325  0 0.125 0.325  0.05 0.125 0.325  0.075 0.125 0.325  0.1 0.125 0.325  0.125 0.125 0.325  0.15 0.125 0.325  0.175 0.125 0.325  0.2 0.125 0.325  0.225 0.125 0.325  0.25 0.125 0.325  0.275 0.125 0.325  0.3 0.125 0.325  0.325 0.125 0.325  0.025 0.15 0.325  0 0.15 0.325  0.05 0.15 0.325  0.075 0.15 0.325  0.1 0.15 0.325  0.125 0.15 0.325  0.15 0.15 0.325  0.175 0.15 0.325  0.2 0.15 0.325  0.225 0.15 0.325  0.25 0.15 0.325  0.275 0.15 0.325  0.3 0.15 0.325  0.325 0.15 0.325  0.025 0.175 0.325  0 0.175 0.325  0.05 0.175 0.325  0.075 0.175 0.325  0.1 0.175 0.325  0.125 0.175 0.325  0.15 0.175 0.325  0.175 0.175 0.325  0.2 0.175 0.325  0.225 0.175 0.325  0.25 0.175 0.325  0.275 0.175 0.325  0.3 0.175 0.325  0.325 0.175 0.325  0.025 0.2 0.325  0 0.2 0.325  0.05 0.2 0.325  0.075 0.2 0.3  0.075 0.2 0.325  0.1 0.2 0.3  0.1 0.2 0.325  0.125 0.2 0.3  0.125 0.2 0.325  0.15 0.2 0.325  0.175 0.2 0.325  0.2 0.2 0.325  0.225 0.2 0.325  0.25 0.2 0.325  0.275 0.2 0.325  0.3 0.2 0.325  0.325 0.2 0.325  0.35 0.2 0.325  0.025 0.225 0.325  0 0.225 0.325  0.05 0.225 0.325  0.075 0.225 0.325  0.1 0.225 0.325  0.125 0.225 0.325  0.15 0.225 0.325  0.025 0.025 0.35  0.025 0 0.35  0 0 0.35  0 0.025 0.35  0.05 0.025 0.35  0.05 0 0.35  0.075 0.025 0.35  0.075 0 0.35  0.1 0.025 0.35  0.1 0 0.35  0.125 0.025 0.35  0.125 0 0.35  0.15 0.025 0.35  0.15 0 0.35  0.175 0.025 0.35  0.175 0 0.35  0.2 0.025 0.35  0.2 0 0.35  0.225 0.025 0.35  0.225 0 0.35  0.25 0.025 0.35  0.25 0 0.35  0.275 0.025 0.35  0.275 0 0.35  0.3 0.025 0.35  0.025 0.05 0.35  0 0.05 0.35  0.05 0.05 0.35  0.075 0.05 0.35  0.1 0.05 0.35  0.125 0.05 0.35  0.15 0.05 0.35  0.175 0.05 0.35  0.2 0.05 0.35  0.225 0.05 0.35  0.25 0.05 0.35  0.275 0.05 0.35  0.3 0.05 0.35  0.025 0.075 0.35  0 0.075 0.35  0.05 0.075 0.35  0.075 0.075 0.35  0.1 0.075 0.35  0.125 0.075 0.35  0.15 0.075 0.35  0.175 0.075 0.35  0.2 0.075 0.35  0.225 0.075 0.35  0.25 0.075 0.35  0.275 0.075 0.35  0.3 0.075 0.35  0.325 0.075 0.35  0.025 0.1 0.35  0 0.1 0.35  0.05 0.1 0.35  0.075 0.1 0.35  0.1 0.1 0.35  0.125 0.1 0.35  0.15 0.1 0.35  0.175 0.1 0.35  0.2 0.1 0.35  0.225 0.1 0.35  0.25 0.1 0.35  0.275 0.1 0.35  0.3 0.1 0.35  0.325 0.1 0.35  0.025 0.125 0.35  0 0.125 0.35  0.05 0.125 0.35  0.075 0.125 0.35  0.1 0.125 0.35  0.125 0.125 0.35  0.15 0.125 0.35  0.175 0.125 0.35  0.2 0.125 0.35  0.225 0.125 0.35  0.25 0.125 0.35  0.275 0.125 0.35  0.3 0.125 0.35  0.325 0.125 0.35  0.025 0.15 0.35  0 0.15 0.35  0.05 0.15 0.35  0.075 0.15 0.35  0.1 0.15 0.35  0.125 0.15 0.35  0.15 0.15 0.35  0.175 0.15 0.35  0.2 0.15 0.35  0.225 0.15 0.35  0.25 0.15 0.35  0.275 0.15 0.35  0.3 0.15 0.35  0.325 0.15 0.35  0.025 0.175 0.35  0 0.175 0.35  0.05 0.175 0.35  0.075 0.175 0.35  0.1 0.175 0.35  0.125 0.175 0.35  0.15 0.175 0.35  0.175 0.175 0.35  0.2 0.175 0.35  0.225 0.175 0.35  0.25 0.175 0.35  0.275 0.175 0.35  0.3 0.175 0.35  0.325 0.175 0.35  0.35 0.175 0.35  0.025 0.2 0.35  0 0.2 0.35  0.05 0.2 0.35  0.075 0.2 0.35  0.1 0.2 0.35  0.125 0.2 0.35  0.15 0.2 0.35  0.175 0.2 0.35  0.2 0.2 0.35  0.225 0.2 0.35  0.25 0.2 0.35  0.275 0.2 0.35  0.3 0.2 0.35  0.325 0.2 0.35  0.35 0.2 0.35  0.025 0.225 0.35  0 0.225 0.35  0.05 0.2
[...]
<PointData  Scalars="f_139"> 
<DataArray  type="Float64"  Name="f_139"  format="ascii">1.0077158425939579e+02  1.0080613322661944e+02  1.0072380920272025e+02  1.0078820449219272e+02  1.0085199957464215e+02  1.0060104296254586e+02  1.0049997039292977e+02  1.0052118421226238e+02  1.0062372398867706e+02  1.0062787130940276e+02  1.0071198369069968e+02  1.0039883351620894e+02  1.0041444459528044e+02  1.0053402912658800e+02  1.0030097374576158e+02  1.0031137915851488e+02  1.0044541970713207e+02  1.0020796284387548e+02  1.0021374258624132e+02  1.0036010700727803e+02  1.0012243614339603e+02  1.0027928758669663e+02  1.0082102134248322e+02  1.0075409252930675e+02  1.0083875145563195e+02  1.0088645132547717e+02  1.0074106606042820e+02  1.0065389502693431e+02  1.0064854798383530e+02  1.0054214526631542e+02  1.0055451227874860e+02  1.0043022638828509e+02  1.0046179430255481e+02  1.0032222940002208e+02  1.0037278229272668e+02  1.0022010945611908e+02  1.0028874449697402e+02  1.0012485492322739e+02  1.0003789575699953e+02  1.0020367928693220e+02  1.0021040787045379e+02  1.0003691805770401e+02  9.9960320611301171e+01  1.0013371702422710e+02  1.0013817978986518e+02  9.9956473357733231e+01  9.9889779159324931e+01  1.0006966077455132e+02  1.0007227398087308e+02  9.9883543104042104e+01  1.0001278693730636e+02  1.0087146587473403e+02  1.0090849803104220e+02  1.0094340240776930e+02  1.0098248275895514e+02  1.0082619561468029e+02  1.0074298414344530e+02  1.0066022770819957e+02  1.0057888748105067e+02  1.0050063461321952e+02  1.0041020709669792e+02  1.0042637095848271e+02  1.0034273855463502e+02  1.0035676162761705e+02  1.0027992622244335e+02  1.0029223605088966e+02  1.0023307058538825e+02  1.0017943609458777e+02  1.0100721805482212e+02  1.0108704085518697e+02  1.0091377322978538e+02  1.0048076735492855e+02  1.0054304671851789e+02  1.0042298630114051e+02  1.0036990813892783e+02  1.0085170049373352e+02  1.0078257883088517e+02  1.0086910846215352e+02  1.0091833392278697e+02  1.0076840049628896e+02  1.0067864110505694e+02  1.0067204502453086e+02  1.0056236993210091e+02  1.0057399666160491e+02  1.0044573439687009e+02  1.0047739427574834e+02  1.0033315657122522e+02  1.0038480633307464e+02  1.0022679256359262e+02  1.0029759074743394e+02  1.0012773359406117e+02  1.0021650538680005e+02  1.0003646964964081e+02  1.0014195050935542e+02  9.9953171558303779e+01  1.0007411048484086e+02  9.9877833388066193e+01  9.9810353663075588e+01  1.0001304111027387e+02  1.0094281702839069e+02  1.0101838200104248e+02  1.0085706803327368e+02  1.0077030989667691e+02  1.0068393502547022e+02  1.0059918626890949e+02  1.0051786533146637e+02  1.0044093671876534e+02  1.0036907825609812e+02  1.0030269983131291e+02  1.0024204036658578e+02  1.0018722498608885e+02  1.0104624992992839e+02  1.0112776886236831e+02  1.0094892819897876e+02  1.0083213295602381e+02  1.0086372824306983e+02  1.0075424862684362e+02  1.0078237204816831e+02  1.0068003990318270e+02  1.0070503807343020e+02  1.0060957368488472e+02  1.0063186227491663e+02  1.0056307140563635e+02  1.0049896027762097e+02  1.0043974114023574e+02  1.0038556765893891e+02  1.0032168534797174e+02  1.0033653713895711e+02  1.0029270332237047e+02  1.0115455785682073e+02  1.0124039279449909e+02  1.0119430276318759e+02  1.0104215425633772e+02  1.0095385779195537e+02  1.0087290823075465e+02  1.0079921530057059e+02  1.0073117913792930e+02  1.0066826148850106e+02  1.0061020155571384e+02  1.0055688404735207e+02  1.0050826886355574e+02  1.0046434213320261e+02  1.0042509796884256e+02  1.0126179271793406e+02  1.0135105675721059e+02  1.0087997487312613e+02  1.0080895139556158e+02  1.0089695691082217e+02  1.0094744220000968e+02  1.0079369654897150e+02  1.0070174672334944e+02  1.0069392450992702e+02  1.0058147477650517e+02  1.0059222942826965e+02  1.0046060076866242e+02  1.0049203312918719e+02  1.0034383988628136e+02  1.0039607675645918e+02  1.0023353931680596e+02  1.0030581508672452e+02  1.0013089825445864e+02  1.0022205041264559e+02  1.0003645719622173e+02  1.0014519093176564e+02  9.9950398423005481e+01  1.0007540568947582e+02  9.9872702326392627e+01  1.0001272161150415e+02  9.9803238944887212e+01  1.0097422591125364e+02  1.0105096136685421e+02  1.0088540895944381e+02  1.0079548330172688e+02  1.0070578718065771e+02  1.0061784217016471e+02  1.0053357817123330e+02  1.0045403546428555e+02  1.0037992118096929e+02  1.0031164257926777e+02  1.0024941603740361e+02  1.0019333297724373e+02  1.0014340536207349e+02  1.0108174606589922e+02  1.0116454074187523e+02  1.0098099967694662e+02  1.0089261371508263e+02  1.0080805104112987e+02  1.0072775051410740e+02  1.0065192480810774e+02  1.0058085116417392e+02  1.0051483212159920e+02  1.0045406162935403e+02  1.0039865920449699e+02  1.0034867998361908e+02  1.0030413307401693e+02  1.0119477406982973e+02  1.0128185405441924e+02  1.0107835954118127e+02  1.0098672662093563e+02  1.0090253731499638e+02  1.0082597692127979e+02  1.0075547381743523e+02  1.0069051506741427e+02  1.0063082356184202e+02  1.0057624760552933e+02  1.0052669867276595e+02  1.0048210981460410e+02  1.0044242232416711e+02  1.0130702303937780e+02  1.0139742936695571e+02  1.0113436778516611e+02  1.0117491712119434e+02  1.0104074250103945e+02  1.0107773605971630e+02  1.0095728890414426e+02  1.0099090297166627e+02  1.0088437451189193e+02  1.0091512433907587e+02  1.0081895700360096e+02  1.0084733445465319e+02  1.0078632953037167e+02  1.0073122092165301e+02  1.0068146111270983e+02  1.0063668843668354e+02  1.0057368484684126e+02  1.0059665535426733e+02  1.0056118526437805e+02  1.0141551165337144e+02  1.0150834218292479e+02  1.0145702613506909e+02  1.0126866507258616e+02  1.0116488407845146e+02  1.0107370197392243e+02  1.0099668423552343e+02  1.0092961121405392e+02  1.0087074885802380e+02  1.0066304066919483e+02  1.0069498876383294e+02  1.0151833019862893e+02  1.0161289577737109e+02  1.0090564407536122e+02  1.0083297199670848e+02  1.0092211231139662e+02  1.0097362504015150e+02  1.0081673147023892e+02  1.0072293402982605e+02  1.0071395488817873e+02  1.0059915802148143e+02  1.0060899794115653e+02  1.0047452585988151e+02  1.0050554065799982e+02  1.0035400710714650e+02  1.0040648301435705e+02  1.0024012424781435e+02  1.0031337629071577e+02  1.0013418226019559e+02  1.0022707402652193e+02  1.0003677814224309e+02  1.0014800238997215e+02  9.9948115449323794e+01  1.0007632584514354e+02  9.9868171803693826e+01  1.0001205245467010e+02  9.9796799158942392e+01  1.0100258078451061e+02  1.0108012469683150e+02  1.0091104879728933e+02  1.0081833355877897e+02  1.0072564418149170e+02  1.0063477062641937e+02  1.0054776114405985e+02  1.0046573617622531e+02  1.0038944158745329e+02  1.0031929375666647e+02  1.0025549822507060e+02  1.0019812315900421e+02  1.0014715061201227e+02  1.0111362174684777e+02  1.0119731403133737e+02  1.0100986421846113e+02  1.0091866857698074e+02  1.0083120326509365e+02  1.0074816154805077e+02  1.0066983051007449e+02  1.0059654809714355e+02  1.0052863782130908e+02  1.0046628991447088e+02  1.0040960326542049e+02  1.0035860238901751e+02  1.0031326102959000e+02  1.0123074383236494e+02  1.0131868898825782e+02  1.0111082067032368e+02  1.0101624472569434e+02  1.0092911738583976e+02  1.0084988974963508e+02  1.0077702570762166e+02  1.0071005296154664e+02  1.0064869582204126e+02  1.0059278412082334e+02  1.0054219675755922e+02  1.0049682680876334e+02  1.0045657296879990e+02  1.0134736886958450e+02  1.0143854231761003e+02  1.0121118074981926e+02  1.0111086408438052e+02  1.0102096488741113e+02  1.0094250977793932e+02  1.0087242667548595e+02  1.0080953564986645e+02  1.0075293022478738e+02  1.0070202921599247e+02  1.0065642546072765e+02  1.0061582098909845e+02  1.0057998822965182e+02  1.0054874641069648e+02  1.0146033688578811e+02  1.0155378487038472e+02  1.0130880491718754e+02  1.0120165797095842e+02  1.0110722456802138e+02  1.0102746371267004e+02  1.0095810659257451e+02  1.0089743181472100e+02  1.0084396509892626e+02  1.0077240620872736e+02  1.0079672319145935e+02  1.0073133530430813e+02  1.0075499219110286e+02  1.0071825345156228e+02  1.0068612117673148e+02  1.0065830282315234e+02  1.0156759687421949e+02  1.0166259753972520e+02  1.0140198368327444e+02  1.0128776258617617e+02  1.0118793534968437e+02  1.0110554375972831e+02  1.0103543859313251e+02  1.0097551878414791e+02  1.0092384017965175e+02  1.0084017411171476e+02  1.0087906135998419e+02  1.0080643412597900e+02  1.0077728366364545e+02  1.0075230165304855e+02  1.0166792704553006e+02  1.0176389543940748e+02  1.0148959445533815e+02  1.0092855875875846e+02  1.0085446199095564e+02  1.0094443797516030e+02  1.0099677231067328e+02  1.0083733577920702e+02  1.0074199094891884e+02  1.0073195424924012e+02  1.0061518374490879e+02  1.0062412803180665e+02  1.0048726861048283e+02  1.0051776912733516e+02  1.0036343182706668e+02  1.0041591907877405e+02  1.0024635227321653e+02  1.0032022023987621e+02  1.0013743369375992e+02  1.0023157913172315e+02  1.0003733049910566e+02  1.0015044564099595e+02  9.9946272925767389e+01  1.0007698720907572e+02  9.9864243349495410e+01  1.0001120094252727e+02  9.9791083714405303e+01  9.9952984587207780e+01  1.0102777801486224e+02  1.0110580715355090e+02  1.0093386141086394e+02  1.0083872745812931e+02  1.0074338929001117e+02  1.0064989103909147e+02  1.0056038527512757e+02  1.0047607102808139e+02  1.0039773681842246e+02  1.0032581542419780e+02  1.0026051006421822e+02  1.0020187409669947e+02  1.0014986732207271e+02  1.0114182330161825e+02  1.0122607015366241e+02  1.0103543569154589e+02  1.0094180182354235e+02  1.0085175934791658e+02  1.0076624593322867e+02  1.0068561494044553e+02  1.0061026814080006e+02  1.0054055706541399e+02  1.0047667792683136e+02  1.0041871915781159e+02  1.0036668420664095e+02  1.0032051979401935e+02  1.0126245917113896e+02  1.0135092010512463e+02  1.0113948501053996e+02  1.0104235524416252e+02  1.0095261626758153e+02  1.0087097246177724e+02  1.0079592252772169e+02  1.0072704204502759e+02  1.0066406742472476e+02  1.0060682255586948e+02  1.0055516601644226e+02  1.0050896195516322e+02  1.0046807581211263e+02  1.0138285867489407e+02  1.0147445032104203e+02  1.0124313110908746e+02  1.0114009484456504e+02  1.0104746968915157e+02  1.0096658248684274e+02  1.0089436172426299e+02  1.0082966186502615e+02  1.0077157305653091e+02  1.0071949586262777e+02  1.0067299216158219e+02  1.0063172630210023e+02  1.0059543029887350e+02  1.0056388331152495e+02  1.0149970972007597e+02  1.0159343099226290e+02  1.0134412093037585e+02  1.0123405556750772e+02  1.0113673214748641e+02  1.0105447392449042e+02  1.0098297700820761e+02  1.0092054572269630e+02  1.0086568778768590e+02  1.0081738997790885e+02  1.0077489679900825e+02  1.0073764289836762e+02  1.0070519447312300e+02  1.0067721267040586e+02  1.0161083844256223e+02  1.0170593677096248e+02  1.0144064658776189e+02  1.0132329474579025e+02  1.0122038562538503e+02  1.0113539797501483e+02  1.0106311422300882e+02  1.0100145396858642e+02  1.0094844169499569e+02  1.0090269548092043e+02  1.0086315538453670e+02  1.0082902156775681e+02  1.0079968066122748e+02  1.0077465888085774e+02  1.0171493075487165e+02  1.0181080188288874e+02  1.0153151047157994e+02  1.0136848961287849e+02  1.0140706079984368e+02  1.0126295841256818e+02  1.0129824256718065e+02  1.0117717127440990e+02  1.0120974029816213e+02  1.0113565623968759e+02  1.0107365910900315e+02  1.0102139428003437e+02  1.0097717144798455e+02  1.0093965837476701e+02  1.0090783349925348e+02  1.0088090498209824e+02  1.0085825876043573e+02  1.0083941772736789e+02  1.0181119779908728e+02  1.0190734586666436e+02  1.0161590783011766e+02  1.0148478729885127e+02  1.0137009803187468e+02  1.0127770463492368e+02  1.0120119406510169e+02  1.0094860870309013e+02  1.0087328822372588e+02  1.0096383361332994e+02  1.0101680487920810e+02  1.0085538171069948e+02  1.0075875649614991e+02  1.0074778149048346e+02  1.0062936888772255e+02  1.0063747992093445e+02  1.0049863731223739e+02  1.0052859464377001e+02  1.0037192895906986e+02  1.0042428983109514e+02  1.0025205874476896e+02  1.0032629018583700e+02  1.0014051908147209e+02  1.0023555322334188e+02  1.0003801903140437e+02  1.0015255484987777e+02  9.9944817418337038e+01  1.0007747022574866e+02  9.9860905964460628e+01  1.0001029133290824e+02  9.9786122461627727e+01  9.9950902438882892e+01  1.0104974436640428e+02  1.0112796672342961e+02  1.0095375432976630e+02  1.0085656308280952e+02  1.0075892844060445e+02  1.0066313256528470e+02  1.0057141614608423e+02  1.0048505127460376e+02  1.0040486899143413e+02  1.0033132211751285e+02  1.0026461718972946e+02  1.0020479916096095e+02  1.0015181194013178e+02  1.0116631924731516e+02  1.0125080625850879e+02  1.0105765572293087e+02  1.0096194691363262e+02  1.0086966417079591e+02  1.0078197754508258e+02  1.0069929526268810e+02  1.0062208125388574e+02  1.0055071751847240e+02  1.0048541195095254e+02  1.0042624964599820e+02  1.0037322044151274e+02  1.0032625111003713e+02  1.0028523062080227e+02  1.0128992846948525e+02  1.0137858084159187e+02  1.0116432431323595e+02  1.0106502169840010e+02  1.0097301070745905e+02  1.0088923547179529e+02  1.0081222402429692e+02  1.0074160155739779e+02  1.0067712201304509e+02  1.0061861143150396e+02  1.0056591701248537e+02  1.0051888281007096e+02  1.0047734907816924e+02  1.0044115554060951e+02  1.0141353458631731e+02  1.0150521700002551e+02  1.0127076423179112e+02  1.0116541556354532e+02  1.0107041877908678e+02  1.0098738142624799e+02  1.0091323322285012e+02  1.0084686747197205e+02  1.0078737945905941e+02  1.0073416202754532e+02  1.0068675703220264e+02  1.0064480152777584e+02  1.0060799635255135e+02  1.0057608844694258e+02  1.0153369803821455e+02  1.0162736688341953e+02  1.0137462672836500e+02  1.0126208105074097e+02  1.0116224377601887e+02  1.0107777487702413e+02  1.0100434187994949e+02  1.0094028130833559e+02  1.0088409431060678e+02  1.0083475052718866e+02  1.0079146581043723e+02  1.0075364009376952e+02  1.0072080205884706e+02  1.0069257533919790e+02  1.0164814008588552e+02  1.0174301487480247e+02  1.0147401953439729e+02  1.0135400755677873e+02  1.0124841818621223e+02  1.0116113085079286e+02  1.0108687128767008e+02  1.0102358772800993e+02  1.0096928732733832e+02  1.0092256258781636e+02  1.0088231668361340e+02  1.0084770780421206e+02  1.0081807870428854e+02  1.0079291266393533e+02  1.0077180127393629e+02  1.0175546667437072e+02  1.0185092539137759e+02  1.0156767994705878e+02  1.0144038827408654e+02  1.0132871145812079e+02  1.0123780305158097e+02  1.0116168223799394e+02  1.0109804493486273e+02  1.0104450975922394e+02  1.0099935348943893e+02  1.0096119942130203e+02  1.0092897719340721e+02  1.0090184495562559e+02  1.0087914037998040e+02  1.0086034177294152e+02  1.0185482779639678e+02  1.0195036480784826e+02  1.0165475181346713e+02  1.0152061218027413e+02  1.0140288343515438e+02  1.0130796859977232e+02  1.0122934696491754e+02  1.0116456680203324e+02  1.0111095159276223e+02  1.0106652489152557e+02  1.0100596212273825e+02  1.0102967118137201e+02  1.0104222192375528e+02  1.0097574251247060e+02  1.0099911516642655e+02  1.0095060405206023e+02  1.0097384205748887e+02  1.0095304773886136e+02  1.0093609634198465e+02  1.0194572905993056e+02  1.0204092256139953e+02  1.0199519812662564e+02  1.0173468537630860e+02  1.0159425883915274e+02  1.0147074174938663e+02  1.0137172297314289e+02  1.0129026009775791e+02  1.0122382791337699e+02  1.0108900838120796e+02  1.0112519474571523e+02  1.0105951932571715e+02  1.0103555755976097e+02  1.0101618719411891e+02  1.0202791135953072e+02  1.0212239950224779e+02  1.0096571357056531e+02  1.0088935234900130e+02  1.0098022657583006e+02  1.0103366688148785e+02  1.0087077403785035e+02  1.0077310947858304e+02  1.0076132861713567e+02  1.0064157276546004e+02  1.0064894348769535e+02  1.0050848141366640e+02  1.0053791614328209e+02  1.0037934973219021e+02  1.0043151378520224e+02  1.0025710781946802e+02  1.0033153266499959e+02  1.0014332475230756e+02  1.0023897665568636e+02  1.0003875889630038e+02  1.0015434731694603e+02  9.9943696887500323e+01  1.0007782991776972e+02  9.9858141974843960e+01  1.0000941527031324e+02  9.9781931689678160e+01  9.9714813177039389e+01  9.9948978824619118e+01  1.0106842929594626e+02  1.0114657766743184e+02  1.0097066089162476e+02  1.0087176388658185e+02  1.0077218789482659e+02  1.0067443610698427e+02  1.0058082014312039e+02  1.0049267706545626e+02  1.0041087738831590e+02  1.0033589478798839e+02  1.0026794233566697e+02  1.0020706109930624e+02  1.0015318412538262e+02  1.0010618178999974e+02  1.0118709352339872e+02  1.0127152917150443e+02  1.0107648622208482e+02  1.0097905662894705e+02  1.0088487584161746e+02  1.0079533334604838e+02  1.0071087907039256e+02  1.0063203426606391e+02  1.0055921053615548e+02  1.0049263003072284e+02  1.0043237902899540e+02  1.0037843925383105e+02  1.0033072326251440e+02  1.0028910236784068e+02  1.0131316965335527e+02  1.0140170914103761e+02  1.0118532672762714e+02  1.0108422273786297e+02  1.0099028573216643e+02  1.0090468593527797e+02  1.0082597242144202e+02  1.0075381804003385e+02  1.0068799589033328e+02  1.0062833877333361e+02  1.0057468862885374e+02  1.0052687616092895e+02  1.0048472311560815e+02  1.0044804808267632e+02  1.0143944452706074e+02  1.0153090726744968e+02  1.0129409049732214e+02  1.0118682629255058e+02  1.0108981890224177e+02  1.0100493809550399e+02  1.0092911159018576e+02  1.0086127186564548e+02  1.0080052353485301e+02  1.0074625840354980e+02  1.0069800615525781e+02  1.0065538469535404e+02  1.0061807146201832e+02  1.0058578820828350e+02  1.0055829387029250e+02  1.0156237403179698e+02  1.0165567895905431e+02  1.0140035000398898e+02  1.0128575089104200e+02  1.0118378269025689e+02  1.0109741678563462e+02  1.0102229374540900e+02  1.0095678432348532e+02  1.0089938970818102e+02  1.0084907105119846e+02  1.0080502514745504e+02  1.0076662680400349e+02  1.0073337613274816e+02  1.0070486720658364e+02  1.0068076778255440e+02  1.0167959187730740e+02  1.0177393391494455e+02  1.0150214233636520e+02  1.0137992888663230e+02  1.0127206778243630e+02  1.0118280611256681e+02  1.0110681889763504e+02  1.0104208623189923e+02  1.0098660672651739e+02  1.0093895773159552e+02  1.0089801679312710e+02  1.0086291112349278e+02  1.0083294972207985e+02  1.0080758183434384e+02  1.0078636654744278e+02  1.0178963650874897e+02  1.0188437807152202e+02  1.0159814986664846e+02  1.0146850661848815e+02  1.0135440685180392e+02  1.0126143215305794e+02  1.0118352844765045e+02  1.0111842291143735e+02  1.0106371806665419e+02  1.0101766976128964e+02  1.0097886959972854e+02  1.0094621073548615e+02  1.0091881255890523e+02  1.0089597431081130e+02  1.0087713801387179e+02  1.0189160555724276e+02  1.0198623265762060e+02  1.0168747247831237e+02  1.0155083473790862e+02  1.0143052926707865e+02  1.0133344872255715e+02  1.0125297787660269e+02  1.0118669706208014e+02  1.0113190715111111e+02  1.0108660584594884e+02  1.0104914050201150e+02  1.0101819429923745e+02  1.0099270900363324e+02  1.0097183788307909e+02  1.0095490513249996e+02  1.0094137501477073e+02  1.0198496451706293e+02  1.0207905263390153e+02  1.0176952626007744e+02  1.0162646263679387e+02  1.0150021814623787e+02  1.0139893218908921e+02  1.0131554796653288e+02  1.0124757411547679e+02  1.0116953047633241e+02  1.0119208650228137e+02  1.0114688212379075e+02  1.0111010674159742e+02  1.0108026226648995e+02  1.0105613095600810e+02  1.0103673042340209e+02  1.0100066296205536e+02  1.0102127203083599e+02  1.0100912827209109e+02  1.0206942409071571e+02  1.0216261298082159e+02  1.0184395082358590e+02  1.0169509509246265e+02  1.0156332161261705e+02  1.0145793292777988e+02  1.0137151533639516e+02  1.0130155648348133e+02  1.0124496692832879e+02  1.0119939146769767e+02  1.0116281365734041e+02  1.0113358344938669e+02  1.0111034445970606e+02  1.0109199267221533e+02  1.0107763551468518e+02  1.0106655894902765e+02  1.0214485738886309e+02  1.0223683265930603e+02  1.0191054260220434e+02  1.0097981572710739e+02  1.0090258266840830e+02  1.0099356508377214e+02  1.0104731970971068e+02  1.0088344282891742e+02  1.0078495978441110e+02  1.0077251430177364e+02  1.0065168871511442e+02  1.006584336982687