<?xml version="1.0"?>
<VTKFile type="UnstructuredGrid"  version="0.1"  >
<UnstructuredGrid>
<Piece  NumberOfPoints="18579" NumberOfCells="98284">
<Points>
<DataArray  type="Float64"  NumberOfComponents="3"  format="ascii">0.525 0 0  0.55 0 0  0.55 0.025 0  0.55 0.025 0.025  0.55 0 0.025  0.575 0 0  0.575 0.025 0  0.575 0.025 0.025  0.575 0 0.025  0.6 0 0  0.6 0.025 0  0.6 0.025 0.025  0.6 0 0.025  0.625 0 0  0.625 0.025 0  0.625 0.025 0.025  0.625 0 0.025  0.65 0 0  0.65 0.025 0  0.65 0.025 0.025  0.65 0 0.025  0.675 0 0  0.675 0.025 0  0.675 0.025 0.025  0.675 0 0.025  0.7 0 0  0.7 0.025 0  0.7 0.025 0.025  0.7 0 0.025  0.725 0 0  0.725 0.025 0  0.725 0.025 0.025  0.725 0 0.025  0.75 0 0  0.75 0.025 0  0.75 0.025 0.025  0.75 0 0.025  0.775 0 0  0.775 0.025 0  0.775 0.025 0.025  0.775 0 0.025  0.8 0 0  0.8 0.025 0  0.8 0.025 0.025  0.8 0 0.025  0.825 0 0  0.825 0.025 0  0.825 0.025 0.025  0.825 0 0.025  0.85 0 0  0.85 0.025 0  0.85 0.025 0.025  0.85 0 0.025  0.875 0 0  0.875 0.025 0  0.875 0.025 0.025  0.875 0 0.025  0.9 0 0  0.9 0.025 0  0.9 0.025 0.025  0.9 0 0.025  0.925 0 0  0.925 0.025 0  0.925 0.025 0.025  0.925 0 0.025  0.95 0 0  0.95 0.025 0  0.95 0.025 0.025  0.95 0 0.025  0.975 0 0  0.975 0.025 0  0.975 0.025 0.025  0.975 0 0.025  1 0 0  1 0.025 0  1 0.025 0.025  1 0 0.025  0.6 0.05 0  0.6 0.05 0.025  0.625 0.05 0  0.625 0.05 0.025  0.65 0.05 0  0.65 0.05 0.025  0.675 0.05 0  0.675 0.05 0.025  0.7 0.05 0  0.7 0.05 0.025  0.725 0.05 0  0.725 0.05 0.025  0.75 0.05 0  0.75 0.05 0.025  0.775 0.05 0  0.775 0.05 0.025  0.8 0.05 0  0.8 0.05 0.025  0.825 0.05 0  0.825 0.05 0.025  0.85 0.05 0  0.85 0.05 0.025  0.875 0.05 0  0.875 0.05 0.025  0.9 0.05 0  0.9 0.05 0.025  0.925 0.05 0  0.925 0.05 0.025  0.95 0.05 0  0.95 0.05 0.025  0.975 0.05 0  0.975 0.05 0.025  1 0.05 0  1 0.05 0.025  0.65 0.075 0  0.65 0.075 0.025  0.675 0.075 0  0.675 0.075 0.025  0.7 0.075 0  0.7 0.075 0.025  0.725 0.075 0  0.725 0.075 0.025  0.75 0.075 0  0.75 0.075 0.025  0.775 0.075 0  0.775 0.075 0.025  0.8 0.075 0  0.8 0.075 0.025  0.825 0.075 0  0.825 0.075 0.025  0.85 0.075 0  0.85 0.075 0.025  0.875 0.075 0  0.875 0.075 0.025  0.9 0.075 0  0.9 0.075 0.025  0.925 0.075 0  0.925 0.075 0.025  0.95 0.075 0  0.95 0.075 0.025  0.975 0.075 0  0.975 0.075 0.025  1 0.075 0  1 0.075 0.025  0.675 0.1 0.025  0.7 0.1 0  0.7 0.1 0.025  0.725 0.1 0  0.725 0.1 0.025  0.75 0.1 0  0.75 0.1 0.025  0.775 0.1 0  0.775 0.1 0.025  0.8 0.1 0  0.8 0.1 0.025  0.825 0.1 0  0.825 0.1 0.025  0.85 0.1 0  0.85 0.1 0.025  0.875 0.1 0  0.875 0.1 0.025  0.9 0.1 0  0.9 0.1 0.025  0.925 0.1 0  0.925 0.1 0.025  0.95 0.1 0  0.95 0.1 0.025  0.975 0.1 0  0.975 0.1 0.025  1 0.1 0  1 0.1 0.025  0.725 0.125 0.025  0.75 0.125 0  0.75 0.125 0.025  0.775 0.125 0  0.775 0.125 0.025  0.8 0.125 0  0.8 0.125 0.025  0.825 0.125 0  0.825 0.125 0.025  0.85 0.125 0  0.85 0.125 0.025  0.875 0.125 0  0.875 0.125 0.025  0.9 0.125 0  0.9 0.125 0.025  0.925 0.125 0  0.925 0.125 0.025  0.95 0.125 0  0.95 0.125 0.025  0.975 0.125 0  0.975 0.125 0.025  1 0.125 0  1 0.125 0.025  0.8 0.15 0.025  0.825 0.15 0  0.825 0.15 0.025  0.85 0.15 0  0.85 0.15 0.025  0.875 0.15 0  0.875 0.15 0.025  0.9 0.15 0  0.9 0.15 0.025  0.925 0.15 0  0.925 0.15 0.025  0.95 0.15 0  0.95 0.15 0.025  0.975 0.15 0  0.975 0.15 0.025  1 0.15 0  1 0.15 0.025  0.85 0.175 0.025  0.875 0.175 0  0.875 0.175 0.025  0.9 0.175 0  0.9 0.175 0.025  0.925 0.175 0  0.925 0.175 0.025  0.95 0.175 0  0.95 0.175 0.025  0.975 0.175 0  0.975 0.175 0.025  1 0.175 0  1 0.175 0.025  0.9 0.2 0.025  0.925 0.2 0.025  0.95 0.2 0  0.95 0.2 0.025  0.975 0.2 0  0.975 0.2 0.025  1 0.2 0  1 0.2 0.025  0.975 0.225 0.025  1 0.225 0.025  0.575 0.025 0.05  0.575 0 0.05  0.55 0 0.05  0.55 0.025 0.05  0.6 0.025 0.05  0.6 0 0.05  0.625 0.025 0.05  0.625 0 0.05  0.65 0.025 0.05  0.65 0 0.05  0.675 0.025 0.05  0.675 0 0.05  0.7 0.025 0.05  0.7 0 0.05  0.725 0.025 0.05  0.725 0 0.05  0.75 0.025 0.05  0.75 0 0.05  0.775 0.025 0.05  0.775 0 0.05  0.8 0.025 0.05  0.8 0 0.05  0.825 0.025 0.05  0.825 0 0.05  0.85 0.025 0.05  0.85 0 0.05  0.875 0.025 0.05  0.875 0 0.05  0.9 0.025 0.05  0.9 0 0.05  0.925 0.025 0.05  0.925 0 0.05  0.95 0.025 0.05  0.95 0 0.05  0.975 0.025 0.05  0.975 0 0.05  1 0.025 0.05  1 0 0.05  0.575 0.05 0.05  0.6 0.05 0.05  0.625 0.05 0.05  0.65 0.05 0.05  0.675 0.05 0.05  0.7 0.05 0.05  0.725 0.05 0.05  0.75 0.05 0.05  0.775 0.05 0.05  0.8 0.05 0.05  0.825 0.05 0.05  0.85 0.05 0.05  0.875 0.05 0.05  0.9 0.05 0.05  0.925 0.05 0.05  0.95 0.05 0.05  0.975 0.05 0.05  1 0.05 0.05  0.625 0.075 0.05  0.65 0.075 0.05  0.675 0.075 0.05  0.7 0.075 0.05  0.725 0.075 0.05  0.75 0.075 0.05  0.775 0.075 0.05  0.8 0.075 0.05  0.825 0.075 0.05  0.85 0.075 0.05  0.875 0.075 0.05  0.9 0.075 0.05  0.925 0.075 0.05  0.95 0.075 0.05  0.975 0.075 0.05  1 0.075 0.05  0.675 0.1 0.05  0.7 0.1 0.05  0.725 0.1 0.05  0.75 0.1 0.05  0.775 0.1 0.05  0.8 0.1 0.05  0.825 0.1 0.05  0.85 0.1 0.05  0.875 0.1 0.05  0.9 0.1 0.05  0.925 0.1 0.05  0.95 0.1 0.05  0.975 0.1 0.05  1 0.1 0.05  0.7 0.125 0.05  0.725 0.125 0.05  0.75 0.125 0.05  0.775 0.125 0.05  0.8 0.125 0.05  0.825 0.125 0.05  0.85 0.125 0.05  0.875 0.125 0.05  0.9 0.125 0.05  0.925 0.125 0.05  0.95 0.125 0.05  0.975 0.125 0.05  1 0.125 0.05  0.775 0.15 0.05  0.8 0.15 0.05  0.825 0.15 0.05  0.85 0.15 0.05  0.875 0.15 0.05  0.9 0.15 0.05  0.925 0.15 0.05  0.95 0.15 0.05  0.975 0.15 0.05  1 0.15 0.05  0.85 0.175 0.05  0.875 0.175 0.05  0.9 0.175 0.05  0.925 0.175 0.05  0.95 0.175 0.05  0.975 0.175 0.05  1 0.175 0.05  0.9 0.2 0.05  0.925 0.2 0.05  0.95 0.2 0.05  0.975 0.2 0.05  1 0.2 0.05  0.975 0.225 0.05  1 0.225 0.05  0.575 0.025 0.075  0.575 0 0.075  0.55 0 0.075  0.55 0.025 0.075  0.6 0.025 0.075  0.6 0 0.075  0.625 0.025 0.075  0.625 0 0.075  0.65 0.025 0.075  0.65 0 0.075  0.675 0.025 0.075  0.675 0 0.075  0.7 0.025 0.075  0.7 0 0.075  0.725 0.025 0.075  0.725 0 0.075  0.75 0.025 0.075  0.75 0 0.075  0.775 0.025 0.075  0.775 0 0.075  0.8 0.025 0.075  0.8 0 0.075  0.825 0.025 0.075  0.825 0 0.075  0.85 0.025 0.075  0.85 0 0.075  0.875 0.025 0.075  0.875 0 0.075  0.9 0.025 0.075  0.9 0 0.075  0.925 0.025 0.075  0.925 0 0.075  0.95 0.025 0.075  0.95 0 0.075  0.975 0.025 0.075  0.975 0 0.075  1 0.025 0.075  1 0 0.075  0.575 0.05 0.075  0.6 0.05 0.075  0.625 0.05 0.075  0.65 0.05 0.075  0.675 0.05 0.075  0.7 0.05 0.075  0.725 0.05 0.075  0.75 0.05 0.075  0.775 0.05 0.075  0.8 0.05 0.075  0.825 0.05 0.075  0.85 0.05 0.075  0.875 0.05 0.075  0.9 0.05 0.075  0.925 0.05 0.075  0.95 0.05 0.075  0.975 0.05 0.075  1 0.05 0.075  0.6 0.075 0.075  0.625 0.075 0.075  0.65 0.075 0.075  0.675 0.075 0.075  0.7 0.075 0.075  0.725 0.075 0.075  0.75 0.075 0.075  0.775 0.075 0.075  0.8 0.075 0.075  0.825 0.075 0.075  0.85 0.075 0.075  0.875 0.075 0.075  0.9 0.075 0.075  0.925 0.075 0.075  0.95 0.075 0.075  0.975 0.075 0.075  1 0.075 0.075  0.65 0.1 0.075  0.675 0.1 0.075  0.65 0.1 0.05  0.7 0.1 0.075  0.725 0.1 0.075  0.75 0.1 0.075  0.775 0.1 0.075  0.8 0.1 0.075  0.825 0.1 0.075  0.85 0.1 0.075  0.875 0.1 0.075  0.9 0.1 0.075  0.925 0.1 0.075  0.95 0.1 0.075  0.975 0.1 0.075  1 0.1 0.075  0.675 0.125 0.075  0.7 0.125 0.075  0.725 0.125 0.075  0.75 0.125 0.075  0.775 0.125 0.075  0.8 0.125 0.075  0.825 0.125 0.075  0.85 0.125 0.075  0.875 0.125 0.075  0.9 0.125 0.075  0.925 0.125 0.075  0.95 0.125 0.075  0.975 0.125 0.075  1 0.125 0.075  0.725 0.15 0.075  0.75 0.15 0.075  0.775 0.15 0.075  0.8 0.15 0.075  0.825 0.15 0.075  0.85 0.15 0.075  0.875 0.15 0.075  0.9 0.15 0.075  0.925 0.15 0.075  0.95 0.15 0.075  0.975 0.15 0.075  1 0.15 0.075  0.8 0.175 0.075  0.825 0.175 0.075  0.85 0.175 0.075  0.875 0.175 0.075  0.9 0.175 0.075  0.925 0.175 0.075  0.95 0.175 0.075  0.975 0.175 0.075  1 0.175 0.075  0.875 0.2 0.075  0.9 0.2 0.075  0.925 0.2 0.075  0.95 0.2 0.075  0.975 0.2 0.075  1 0.2 0.075  0.95 0.225 0.075  0.975 0.225 0.075  1 0.225 0.075  0.575 0.025 0.1  0.575 0 0.1  0.55 0 0.1  0.55 0.025 0.1  0.6 0.025 0.1  0.6 0 0.1  0.625 0.025 0.1  0.625 0 0.1  0.65 0.025 0.1  0.65 0 0.1  0.675 0.025 0.1  0.675 0 0.1  0.7 0.025 0.1  0.7 0 0.1  0.725 0.025 0.1  0.725 0 0.1  0.75 0.025 0.1  0.75 0 0.1  0.775 0.025 0.1  0.775 0 0.1  0.8 0.025 0.1  0.8 0 0.1  0.825 0.025 0.1  0.825 0 0.1  0.85 0.025 0.1  0.85 0 0.1  0.875 0.025 0.1  0.875 0 0.1  0.9 0.025 0.1  0.9 0 0.1  0.925 0.025 0.1  0.925 0 0.1  0.95 0.025 0.1  0.95 0 0.1  0.975 0.025 0.1  0.975 0 0.1  1 0.025 0.1  1 0 0.1  0.575 0.05 0.1  0.6 0.05 0.1  0.625 0.05 0.1  0.65 0.05 0.1  0.675 0.05 0.1  0.7 0.05 0.1  0.725 0.05 0.1  0.75 0.05 0.1  0.775 0.05 0.1  0.8 0.05 0.1  0.825 0.05 0.1  0.85 0.05 0.1  0.875 0.05 0.1  0.9 0.05 0.1  0.925 0.05 0.1  0.95 0.05 0.1  0.975 0.05 0.1  1 0.05 0.1  0.6 0.075 0.1  0.625 0.075 0.1  0.65 0.075 0.1  0.675 0.075 0.1  0.7 0.075 0.1  0.725 0.075 0.1  0.75 0.075 0.1  0.775 0.075 0.1  0.8 0.075 0.1  0.825 0.075 0.1  0.85 0.075 0.1  0.875 0.075 0.1  0.9 0.075 0.1  0.925 0.075 0.1  0.95 0.075 0.1  0.975 0.075 0.1  1 0.075 0.1  0.625 0.1 0.075  0.625 0.1 0.1  0.6 0.1 0.1  0.65 0.1 0.1  0.675 0.1 0.1  0.7 0.1 0.1  0.725 0.1 0.1  0.75 0.1 0.1  0.775 0.1 0.1  0.8 0.1 0.1  0.825 0.1 0.1  0.85 0.1 0.1  0.875 0.1 0.1  0.9 0.1 0.1  0.925 0.1 0.1  0.95 0.1 0.1  0.975 0.1 0.1  1 0.1 0.1  0.65 0.125 0.1  0.625 0.125 0.1  0.675 0.125 0.1  0.7 0.125 0.1  0.725 0.125 0.1  0.75 0.125 0.1  0.775 0.125 0.1  0.8 0.125 0.1  0.825 0.125 0.1  0.85 0.125 0.1  0.875 0.125 0.1  0.9 0.125 0.1  0.925 0.125 0.1  0.95 0.125 0.1  0.975 0.125 0.1  1 0.125 0.1  0.7 0.15 0.1  0.725 0.15 0.1  0.75 0.15 0.1  0.775 0.15 0.1  0.8 0.15 0.1  0.825 0.15 0.1  0.85 0.15 0.1  0.875 0.15 0.1  0.9 0.15 0.1  0.925 0.15 0.1  0.95 0.15 0.1  0.975 0.15 0.1  1 0.15 0.1  0.775 0.175 0.1  0.8 0.175 0.1  0.825 0.175 0.1  0.85 0.175 0.1  0.875 0.175 0.1  0.9 0.175 0.1  0.925 0.175 0.1  0.95 0.175 0.1  0.975 0.175 0.1  1 0.175 0.1  0.85 0.2 0.1  0.875 0.2 0.1  0.9 0.2 0.1  0.925 0.2 0.1  0.95 0.2 0.1  0.975 0.2 0.1  1 0.2 0.1  0.925 0.225 0.1  0.95 0.225 0.1  0.975 0.225 0.1  1 0.225 0.1  0.45 0 0.1  0.475 0 0.1  0.
[...]
<PointData  Scalars="f_153"> 
<DataArray  type="Float64"  Name="f_153"  format="ascii">9.9638216948671769e+01  9.9647422716976351e+01  9.9645530137289001e+01  9.9693332752335223e+01  9.9645530137291431e+01  9.9662721666484543e+01  9.9660838421560541e+01  9.9708501550534493e+01  9.9660838421560186e+01  9.9684086692670903e+01  9.9682218728457741e+01  9.9729683643364112e+01  9.9682218728457670e+01  9.9711473065991925e+01  9.9709628297505319e+01  9.9756832831513066e+01  9.9709628297505262e+01  9.9744812222750710e+01  9.9743001265222347e+01  9.9789878524233572e+01  9.9743001265223100e+01  9.9784003353599388e+01  9.9782240379842193e+01  9.9828717138920481e+01  9.9782240379841767e+01  9.9828902044626616e+01  9.9827205930593621e+01  9.9873200682473467e+01  9.9827205930593038e+01  9.9879306408548061e+01  9.9877701944152818e+01  9.9923122043241747e+01  9.9877701944153031e+01  9.9934935938337759e+01  9.9933456410154193e+01  9.9978195281358893e+01  9.9933456410155202e+01  9.9995415145721054e+01  9.9994102611106356e+01  1.0003803207399503e+02  9.9994102611106129e+01  1.0006021294485922e+02  1.0005913016255997e+02  1.0010210262341504e+02  1.0005913016255943e+02  1.0012869618201167e+02  1.0012790573301592e+02  1.0016971134586777e+02  1.0012790573301527e+02  1.0019974184273833e+02  1.0019940314319039e+02  1.0023986086058117e+02  1.0019940314319065e+02  1.0027273370757285e+02  1.0027284800510883e+02  1.0031142338204931e+02  1.0027284800510922e+02  1.0034396111087618e+02  1.0034520598033471e+02  1.0038208849208905e+02  1.0034520598033453e+02  1.0041704119703735e+02  1.0041872881282724e+02  1.0045138468699886e+02  1.0041872881282708e+02  1.0047206719838321e+02  1.0047703808212751e+02  1.0050927881104266e+02  1.0047703808212768e+02  1.0054429635022881e+02  1.0055224612411608e+02  1.0057329267265672e+02  1.0055224612411622e+02  1.0054069471875550e+02  1.0055156649035806e+02  1.0057136770955864e+02  1.0055156649035814e+02  9.9677623013499257e+01  9.9761822478764202e+01  9.9705100348467170e+01  9.9788749831894506e+01  9.9738570549275494e+01  9.9821525010231881e+01  9.9777945932907443e+01  9.9860044641292177e+01  9.9823099297851627e+01  9.9904160998777272e+01  9.9873851099619372e+01  9.9953667439859075e+01  9.9929950718289504e+01  1.0000827855806956e+02  9.9991061002152847e+01  1.0006760795965893e+02  1.0005670876500454e+02  1.0013112633385299e+02  1.0012632508602074e+02  1.0019815109337478e+02  1.0019893719519547e+02  1.0026767145598041e+02  1.0027399663231471e+02  1.0033867292727214e+02  1.0034835090269763e+02  1.0040862911662784e+02  1.0042564670280993e+02  1.0047812127950128e+02  1.0048686041884552e+02  1.0053476186386344e+02  1.0057433881156616e+02  1.0060544553711159e+02  1.0056960490482709e+02  1.0059457455046511e+02  9.9731856108257816e+01  9.9843339493686102e+01  9.9771481501340361e+01  9.9881658097574203e+01  9.9816974818941702e+01  9.9925566659436640e+01  9.9868184033894195e+01  9.9974871743385904e+01  9.9924894616993242e+01  1.0002930571478041e+02  9.9986817318199925e+01  1.0008850640636662e+02  1.0005354344393244e+02  1.0015197892873245e+02  1.0012459388356328e+02  1.0021908967893410e+02  1.0019911696055726e+02  1.0028890371821144e+02  1.0027676323852471e+02  1.0036052135947612e+02  1.0035454768416341e+02  1.0043158438676531e+02  1.0043683216574279e+02  1.0050307759296081e+02  1.0050350538621333e+02  1.0056234713414017e+02  1.0060199254635532e+02  1.0063984809163787e+02  1.0059525996685593e+02  1.0062588939434569e+02  9.9896337747335565e+01  9.9809231555109903e+01  9.9940234579318698e+01  9.9861127861467011e+01  9.9989593980675238e+01  9.9918744399260945e+01  1.0004418223064822e+02  9.9981855871082615e+01  1.0010368217014299e+02  1.0005013641436430e+02  1.0016765879888129e+02  1.0012321839388288e+02  1.0023556106078864e+02  1.0020038607193828e+02  1.0030656104501067e+02  1.0028150138554243e+02  1.0037992322861476e+02  1.0036370177287965e+02  1.0045342984074459e+02  1.0045190293718318e+02  1.0052847787525353e+02  1.0052487136073172e+02  1.0059184370875944e+02  1.0063312879520028e+02  1.0067637818202138e+02  1.0062592691152632e+02  1.0066147874310529e+02  9.9999651901612026e+01  9.9911959662376177e+01  1.0005473702751598e+02  9.9976623240446145e+01  1.0011496360952579e+02  1.0004689866984670e+02  1.0017997206960075e+02  1.0012253335704446e+02  1.0024930727589712e+02  1.0020294271300001e+02  1.0032225706191404e+02  1.0028816099182944e+02  1.0039823256321347e+02  1.0037539507292260e+02  1.0047512104389790e+02  1.0046987783313757e+02  1.0055455222841773e+02  1.0054930377023683e+02  1.0062266270333480e+02  1.0066608233568209e+02  1.0071380120098968e+02  1.0065926236729986e+02  1.0069877240882501e+02  1.0019004920288262e+02  1.0012269028677234e+02  1.0026134386987580e+02  1.0020676063965593e+02  1.0033682373504134e+02  1.0029646488468899e+02  1.0041600912160598e+02  1.0038901185645078e+02  1.0049682723901196e+02  1.0048977203665822e+02  1.0058099884329248e+02  1.0057545305464475e+02  1.0065398545581381e+02  1.0069958647858033e+02  1.0075108410337465e+02  1.0069368761413995e+02  1.0073640005058249e+02  1.0035065298256551e+02  1.0030602248884318e+02  1.0043339621906189e+02  1.0040390756231022e+02  1.0051839105775065e+02  1.0051070930464438e+02  1.0060734632541050e+02  1.0060226250722769e+02  1.0068506563629279e+02  1.0073271590344672e+02  1.0078745520552320e+02  1.0072810302942804e+02  1.0077341493787036e+02  1.0053953212403685e+02  1.0063311916860083e+02  1.0062891866445253e+02  1.0071528919082490e+02  1.0076478554452983e+02  1.0082233166242899e+02  1.0076170985183646e+02  1.0080913524504497e+02  1.0085527428416256e+02  1.0084305974606266e+02  9.9740813382846014e+01  9.9656197202385897e+01  9.9640860419229043e+01  9.9725768619787360e+01  9.9761822478763492e+01  9.9677623013499201e+01  9.9788749831894236e+01  9.9705100348467042e+01  9.9821525010231895e+01  9.9738570549277441e+01  9.9860044641292745e+01  9.9777945932907613e+01  9.9904160998776504e+01  9.9823099297850078e+01  9.9953667439858052e+01  9.9873851099618975e+01  1.0000827855806968e+02  9.9929950718290883e+01  1.0006760795965995e+02  9.9991061002153089e+01  1.0013112633385251e+02  1.0005670876500348e+02  1.0019815109337556e+02  1.0012632508602131e+02  1.0026767145598117e+02  1.0019893719519587e+02  1.0033867292727203e+02  1.0027399663231451e+02  1.0040862911662731e+02  1.0034835090269803e+02  1.0047812127950127e+02  1.0042564670280983e+02  1.0053476186386305e+02  1.0048686041884517e+02  1.0060544553711159e+02  1.0057433881156622e+02  1.0059457455046508e+02  1.0056960490482726e+02  9.9805057479518283e+01  9.9825665291955218e+01  9.9852068528250044e+01  9.9884189821556760e+01  9.9921916643918436e+01  9.9965089381455712e+01  1.0001348620910474e+02  1.0006680209750769e+02  1.0012462669394873e+02  1.0018639738856460e+02  1.0025140251118104e+02  1.0031855911737017e+02  1.0038691810082238e+02  1.0045361015227127e+02  1.0052052393026467e+02  1.0057221226603050e+02  1.0064949657803264e+02  1.0062458725470930e+02  9.9900445793140236e+01  9.9931998562908873e+01  9.9969051269138816e+01  1.0001144343911925e+02  1.0005895285403714e+02  1.0011127533305589e+02  1.0016800398566878e+02  1.0022858553656901e+02  1.0029232885771542e+02  1.0035819575028975e+02  1.0042533574493341e+02  1.0049103826658165e+02  1.0055779590623472e+02  1.0060988450661817e+02  1.0069425374649579e+02  1.0066399973152085e+02  1.0000512082728417e+02  1.0004694754536374e+02  1.0009385293167558e+02  1.0014555377679662e+02  1.0020167342739019e+02  1.0026170247951318e+02  1.0032501783276197e+02  1.0039067776202914e+02  1.0045801071646783e+02  1.0052447206673126e+02  1.0059320085904247e+02  1.0064786978001368e+02  1.0073988259219348e+02  1.0070710140892261e+02  1.0007420278332624e+02  1.0012081737294817e+02  1.0017229504196536e+02  1.0022830931740209e+02  1.0028841806070460e+02  1.0035209013109989e+02  1.0041850323125550e+02  1.0048716087185241e+02  1.0055566705258532e+02  1.0062759172242194e+02  1.0068594920496558e+02  1.0078519546932341e+02  1.0075091972333307e+02  1.0024976116437348e+02  1.0031051725915172e+02  1.0037521374338368e+02  1.0044314118136465e+02  1.0051394511896817e+02  1.0058531345087404e+02  1.0066106969845164e+02  1.0072352444742928e+02  1.0082929839839906e+02  1.0079419276788053e+02  1.0046543118252256e+02  1.0053891390433506e+02  1.0061359768904916e+02  1.0069342316872967e+02  1.0076001130697539e+02  1.0087156745748553e+02  1.0083608017178176e+02  1.0064047356916946e+02  1.0072435641870952e+02  1.0079492058764482e+02  1.0091154556250723e+02  1.0087600873350544e+02  1.0094889866618581e+02  1.0091356961583956e+02  9.9763102388060474e+01  9.9649085232073986e+01  9.9633692214969869e+01  9.9748153846539850e+01  9.9783981308713820e+01  9.9670598950739461e+01  9.9810748613531928e+01  9.9698204741296337e+01  9.9843339493685463e+01  9.9731856108259038e+01  9.9881658097575411e+01  9.9771481501341526e+01  9.9925566659435745e+01  9.9816974818939983e+01  9.9974871743385677e+01  9.9868184033893456e+01  1.0002930571478150e+02  9.9924894616994536e+01  1.0008850640636817e+02  9.9986817318201489e+01  1.0015197892873162e+02  1.0005354344393214e+02  1.0021908967893395e+02  1.0012459388356271e+02  1.0028890371821184e+02  1.0019911696055715e+02  1.0036052135947608e+02  1.0027676323852492e+02  1.0043158438676534e+02  1.0035454768416413e+02  1.0050307759296130e+02  1.0043683216574294e+02  1.0056234713413987e+02  1.0050350538621294e+02  1.0063984809163765e+02  1.0060199254635525e+02  1.0062588939434566e+02  1.0059525996685585e+02  9.9854258802087230e+01  9.9874506454065965e+01  9.9900445793141103e+01  9.9931998562906301e+01  9.9969051269138973e+01  1.0001144343912075e+02  1.0005895285403703e+02  1.0011127533305549e+02  1.0016800398566994e+02  1.0022858553657008e+02  1.0029232885771492e+02  1.0035819575029005e+02  1.0042533574493319e+02  1.0049103826658153e+02  1.0055779590623519e+02  1.0060988450661830e+02  1.0069425374649560e+02  1.0066399973152076e+02  9.9946857020531155e+01  9.9972025088577979e+01  1.0000262188451897e+02  1.0003852540107361e+02  1.0007956492967807e+02  1.0012550648503590e+02  1.0017603331033793e+02  1.0023072672135746e+02  1.0028902672037297e+02  1.0035024826882051e+02  1.0041339211665976e+02  1.0047772106283463e+02  1.0054075487047417e+02  1.0060576925727024e+02  1.0065711324231265e+02  1.0074913868984083e+02  1.0071333680536542e+02  1.0005893726304703e+02  1.0009386615511097e+02  9.9968580052553406e+01  1.0013378678374360e+02  1.0017847161981790e+02  1.0022761565985115e+02  1.0028082137255744e+02  1.0033756554393766e+02  1.0039722984545992e+02  1.0045892326180211e+02  1.0052212703605161e+02  1.0058461477322186e+02  1.0065051206556159e+02  1.0070380247409572e+02  1.0080434260309636e+02  1.0076619326843498e+02  1.0013798608187427e+02  1.0017706395383789e+02  1.0022084833227488e+02  1.0026906661219603e+02  1.0032136792089622e+02  1.0037729661775268e+02  1.0043633434251525e+02  1.0049773207270997e+02  1.0056119448437161e+02  1.0062473362459886e+02  1.0069307831282157e+02  1.0074973199727121e+02  1.0085839445411904e+02  1.0081891751175125e+02  1.0025492392700519e+02  1.0030267147794802e+02  1.0035462810536977e+02  1.0041042096680950e+02  1.0046964209353135e+02  1.0053168217114617e+02  1.0059643648047901e+02  1.0066208002188509e+02  1.0073373565842212e+02  1.0079432310852975e+02  1.0091033126586746e+02  1.0087014559522052e+02  1.0043848639565152e+02  1.0049853942325134e+02  1.0056192228291330e+02  1.0062867067912831e+02  1.0069704615161866e+02  1.0077239995835045e+02  1.0083704253956515e+02  1.0095955764663601e+02  1.0091905881741449e+02  1.0065831458175145e+02  1.0072973805560301e+02  1.0080887748991621e+02  1.0087746266293223e+02  1.0100567647687527e+02  1.0096515986677893e+02  1.0091525541433317e+02  1.0104842306954747e+02  1.0100812435744488e+02  9.9778055451297803e+01  9.9639809565588749e+01  9.9624324430248876e+01  9.9763164163834048e+01  9.9798862801255183e+01  9.9661465070082485e+01  9.9825552488440465e+01  9.9689274910033447e+01  9.9858071056622350e+01  9.9723209793888216e+01  9.9896337747334826e+01  9.9763220880994012e+01  9.9940234579318627e+01  9.9809231555109349e+01  9.9989593980676702e+01  9.9861127861467352e+01  1.0004418223064954e+02  9.9918744399260987e+01  1.0010368217014384e+02  9.9981855871084321e+01  1.0016765879888131e+02  1.0005013641436454e+02  1.0023556106078796e+02  1.0012321839388257e+02  1.0030656104501081e+02  1.0020038607193788e+02  1.0037992322861454e+02  1.0028150138554230e+02  1.0045342984074475e+02  1.0036370177288011e+02  1.0052847787525397e+02  1.0045190293718355e+02  1.0059184370875948e+02  1.0052487136073171e+02  1.0067637818202122e+02  1.0063312879520038e+02  1.0066147874310539e+02  1.0062592691152639e+02  9.9891960975239869e+01  9.9911911026001590e+01  9.9937474905682436e+01  9.9968580052551758e+01  1.0000512082728224e+02  1.0004694754536540e+02  1.0009385293167674e+02  1.0014555377679785e+02  1.0020167342738993e+02  1.0026170247951353e+02  1.0032501783276253e+02  1.0039067776202954e+02  1.0045801071646709e+02  1.0052447206673057e+02  1.0059320085904238e+02  1.0064786978001375e+02  1.0073988259219344e+02  1.0070710140892280e+02  1.0000467695309327e+02  1.0002916741932464e+02  1.0005893726304780e+02  1.0009386615510965e+02  1.0013378678374382e+02  1.0017847161981710e+02  1.0022761565985277e+02  1.0028082137255797e+02  1.0033756554393747e+02  1.0039722984546005e+02  1.0045892326180169e+02  1.0052212703605164e+02  1.0058461477322182e+02  1.0065051206556124e+02  1.0070380247409551e+02  1.0080434260309642e+02  1.0076619326843513e+02  1.0002916741932214e+02  1.0010414871084384e+02  1.0008063321336961e+02  1.0013271994940976e+02  1.0016622353693438e+02  1.0020449021648000e+02  1.0024729334629620e+02  1.0029433460606222e+02  1.0034523441643299e+02  1.0039950746807608e+02  1.0045661214841890e+02  1.0051579165634656e+02  1.0057680276137121e+02  1.0063777070483569e+02  1.0070387766953732e+02  1.0075890569331430e+02  1.0086906839726967e+02  1.0082913788069813e+02  1.0019289547240842e+02  1.0016534481053488e+02  1.0022520914363423e+02  1.0026212952455090e+02  1.0030345007675341e+02  1.0034890366010605e+02  1.0039815918101201e+02  1.0045080637068681e+02  1.0050642097796892e+02  1.0056442177808809e+02  1.0062484989355123e+02  1.0068616377674097e+02  1.0075431992839803e+02  1.0081274404297436e+02  1.0093212530454862e+02  1.0089143016266975e+02  1.0030918996402990e+02  1.0034944571039163e+02  1.0039383324656812e+02  1.0044208944597413e+02  1.0049389833961078e+02  1.0054896714970300e+02  1.0060688975761731e+02  1.0066795550188974e+02  1.0073086773682718e+02  1.0080211402573063e+02  1.0086461861061959e+02  1.0099235038869607e+02  1.0095144675046673e+02  1.0047890920101491e+02  1.0053055767847646e+02  1.0058585047188809e+02  1.0064453350110330e+02  1.0070708717118310e+02  1.0077236894301272e+02  1.0084720186646267e+02  1.0091395487631725e+02  1.0104908574137522e+02  1.0100828761649288e+02  1.0067820038495533e+02  1.0074278478846357e+02  1.0081085373158730e+02  1.0088942618806540e+02  1.0096032649893667e+02  1.0110193457257526e+02  1.0106146499370443e+02  1.0092862043707217e+02  1.0100342868895376e+02  1.0115066337638731e+02  1.0111069961677653e+02  9.9624170139909538e+01  9.9614942376865457e+01  9.9603701839791285e+01  9.9763499846071525e+01  9.9613009105347317e+01  9.9772369625354614e+01  9.9611890171067614e+01  9.9751197960329549e+01  9.9760565411014426e+01  9.9600622326932267e+01  9.9615017194559314e+01  9.9754208549816454e+01  9.9763570738297318e+01  9.9603772162366198e+01  9.9772516126616267e+01  9.9613154462672824e+01  9.9787397118534884e+01  9.9628773347387664e+01  9.9808202476821279e+01  9.9650632282699377e+01  9.9834910713342580e+01  9.9678731260435839e+01  9.9867485053637736e+01  9.9713062741122215e+01  9.9905866695942066e+01  9.9753606347384107e+01  9.9949966042063096e+01  9.9800321978477527e+01  9.9999651901614229e+01  9.9853142045381105e+01  1.0005473702751678e+02  9.9911959662375963e+01  1.0011496360952660e+02  9.9976623240447566e+01  1.0017997206960135e+02  1.0004689866984694e+02  1.0024930727589629e+02  1.0012253335704435e+02  1.0032225706191385e+02  1.0020294271299991e+02  1.0039823256321260e+02  1.0028816099182924e+02  1.0047512104389749e+02  1.0037539507292257e+02  1.0055455222841820e+02  1.0046987783313746e+02  1.0062266270333468e+02  1.0054930377023676e+02  1.0071380120098975e+02  1.0066608233568267e+02  1.0069877240882532e+02  1.0065926236729996e+02  9.9898028228137818e+01  9.9895171845661466e+01  9.9906524798053056e+01  9.9920649987930773e+01  9.9877672585784111e+01  9.9940380393707684e+01  9.9965676875485926e+01  9.9996478897357861e+01  1.0003269696293107e+02  1.0007420278332856e+02  1.0012081737295087e+02  1.0017229504196624e+02  1.0022830931740243e+02  1.0028841806070523e+02  1.0035209013110017e+02  1.0041850323125585e+02  1.0048716087185153e+02  1.0055566705258521e+02  1.0062759172242167e+02  1.0068594920496577e+02  1.0078519546932358e+02  1.0075091972333350e+02  1.0003209658029449e+02  1.0005078223644860e+02  9.9985550170096118e+01  1.0007471524198669e+02  1.0010381946126154e+02  1.0013798608187446e+02  1.0017706395383888e+02  1.0022084833227584e+02  1.0026906661219576e+02  1.0032136792089675e+02  1.0037729661775275e+02  1.0043633434251565e+02  1.0049773207271025e+02  1.0056119448437049e+02  1.0062473362459896e+02  1.0069307831282197e+02  1.0074973199727130e+02  1.0085839445411882e+02  1.0081891751175134e+02  1.0014267221119752e+02  1.0012495986630859e+02  1.0016534481053567e+02  1.0019289547240891e+02  1.0022520914363518e+02  1.0026212952455147e+02  1.0030345007675353e+02  1.0034890366010528e+02  1.0039815918101306e+02  1.0045080637068706e+02  1.0050642097796802e+02  1.0056442177808799e+02  1.0062484989355126e+02  1.0068616377674120e+02  1.0075431992839826e+02  1.0081274404297439e+02  1.0093212530454855e+02  1.0089143016266981e+02  1.0024046737436485e+02  1.0026665879807435e+02  1.0029737737013545e+02  1.0033247855947870e+02  1.0037177590664075e+02  1.0041503566675202e+02  1.0046198136535482e+02  1.0051229039356514e+02  1.0056567881368426e+02  1.0062177953882120e+02  1.0068098004318988e+02  1.0074216127572741e+02  1.0081219512264732e+02  1.0087424477127553e+02  1.0100393635296815e+02  1.0096310370757385e+02  1.0032762883101856e+02  1.0035704220997229e+02  1.0039069424912446e+02  1.0042843580785460e+02  1.0047008679229101e+02  1.0051544779963822e+02  1.0056430611845292e+02  1.0061653448947018e+02  1.0067197959151761e+02  1.0073133445008793e+02  1.0079380146842750e+02  1.0086689617687612e+02  1.0093334303739729e+02  1.0107239999152816e+02  1.0103196898793590e+02  1.0047555443247661e+02  1.0051614928272390e+02  1.0056058535248610e+02  1.0060876529221208e+02  1.0066071269791885e+02  1.0071646215220409e+02  1.0077694763932027e+02  1.0084158859265911e+02  1.0091832366184450e+02  1.0098936327976855e+02  1.0113673236487280e+02  1.0109695882404881e+02  1.0069942264861635e+02  1.0075616805960919e+02  1.0081842245436992e+02  1.0088573484934948e+02  1.0096630776633370e+02  1.0104183467416860e+02  1.0119648681983477e+02  1.0115752899701144e+02  1.0092631510399330e+02  1.0101068774424593e+02  1.0109044208898979e+02  1.0125142370667493e+02  1.0121339843194237e+02  9.9768415475489093e+01  9.9591057527200121e+01  9.9600469967281782e+01  9.9777308653271717e+01  9.9765472606288441e+01  9.9587942282192458e+01  9.9768482451487984e+01  9.9591123366334529e+01  9.9777447417510913e+01  9.9600606437050345e+01  9.9792369356234829e+01  9.9616403248331423e+01  9.9813247784369295e+01  9.9638530267087845e+01  9.9840076830554239e+01  9.9667006319170142e+01  9.9872840815729475e+01  9.9701849214426929e+01  9.9911508355306751e+01  9.9743071362914179e+01  9.9956024691377465e+01  9.9790674072862629e+01  1.0000630228066149e+02  9.9844641240788391e+01  1.0006220795384912e+02  9.9904929163210980e+01  1.0012355020032906e+02  9.9971462871542315e+01  1.0019004920288424e+02  1.0004409890955112e+02  1.0026134386987646e+02  1.0012269028677308e+02  1.0033682373504099e+02  1.0020676063965483e+02  1.004160091216048