<?xml version="1.0"?>
<VTKFile type="UnstructuredGrid"  version="0.1"  >
<UnstructuredGrid>
<Piece  NumberOfPoints="17709" NumberOfCells="93714">
<Points>
<DataArray  type="Float64"  NumberOfComponents="3"  format="ascii">0 0 0.175  0 0 0.2  0.025 0 0.2  0.025 0.025 0.2  0 0.025 0.2  0.05 0 0.175  0.075 0 0.175  0.075 0 0.2  0.075 0.025 0.2  0.05 0 0.2  0.05 0.025 0.2  0.1 0 0.175  0.1 0 0.2  0.1 0.025 0.2  0.125 0 0.175  0.125 0 0.2  0.125 0.025 0.2  0.15 0 0.175  0.15 0 0.2  0.15 0.025 0.2  0.175 0 0.2  0.175 0.025 0.2  0.025 0.025 0.225  0.025 0 0.225  0 0 0.225  0 0.025 0.225  0.05 0.025 0.225  0.05 0 0.225  0.075 0.025 0.225  0.075 0 0.225  0.1 0.025 0.225  0.1 0 0.225  0.125 0.025 0.225  0.125 0 0.225  0.15 0.025 0.225  0.15 0 0.225  0.175 0.025 0.225  0.175 0 0.225  0.2 0 0.2  0.2 0.025 0.2  0.2 0.025 0.225  0.2 0 0.225  0.225 0 0.2  0.225 0.025 0.2  0.225 0.025 0.225  0.225 0 0.225  0.25 0 0.2  0.25 0.025 0.2  0.25 0.025 0.225  0.25 0 0.225  0.275 0.025 0.225  0.025 0.05 0.2  0.025 0.05 0.225  0 0.05 0.2  0 0.05 0.225  0.05 0.05 0.225  0.075 0.05 0.225  0.1 0.05 0.225  0.125 0.05 0.225  0.15 0.05 0.225  0.175 0.05 0.2  0.175 0.05 0.225  0.2 0.05 0.2  0.2 0.05 0.225  0.225 0.05 0.2  0.225 0.05 0.225  0.25 0.05 0.225  0.275 0.05 0.225  0.025 0.075 0.225  0 0.075 0.225  0.05 0.075 0.225  0.2 0.075 0.225  0.175 0.075 0.225  0.225 0.075 0.225  0.25 0.075 0.225  0.025 0.025 0.25  0.025 0 0.25  0 0 0.25  0 0.025 0.25  0.05 0.025 0.25  0.05 0 0.25  0.075 0.025 0.25  0.075 0 0.25  0.1 0.025 0.25  0.1 0 0.25  0.125 0.025 0.25  0.125 0 0.25  0.15 0.025 0.25  0.15 0 0.25  0.175 0.025 0.25  0.175 0 0.25  0.2 0.025 0.25  0.2 0 0.25  0.225 0.025 0.25  0.225 0 0.25  0.25 0.025 0.25  0.25 0 0.25  0.275 0 0.25  0.275 0.025 0.25  0.025 0.05 0.25  0 0.05 0.25  0.05 0.05 0.25  0.075 0.05 0.25  0.1 0.05 0.25  0.125 0.05 0.25  0.15 0.05 0.25  0.175 0.05 0.25  0.2 0.05 0.25  0.225 0.05 0.25  0.25 0.05 0.25  0.275 0.05 0.25  0.025 0.075 0.25  0 0.075 0.25  0.05 0.075 0.25  0.075 0.075 0.225  0.075 0.075 0.25  0.1 0.075 0.225  0.1 0.075 0.25  0.125 0.075 0.225  0.125 0.075 0.25  0.15 0.075 0.225  0.15 0.075 0.25  0.175 0.075 0.25  0.2 0.075 0.25  0.225 0.075 0.25  0.25 0.075 0.25  0.275 0.075 0.225  0.275 0.075 0.25  0.3 0.075 0.25  0.025 0.1 0.25  0 0.1 0.25  0 0.1 0.225  0.05 0.1 0.25  0.075 0.1 0.25  0.1 0.1 0.25  0.125 0.1 0.25  0.15 0.1 0.25  0.175 0.1 0.25  0.2 0.1 0.25  0.225 0.1 0.25  0.25 0.1 0.25  0.275 0.1 0.25  0.3 0.1 0.25  0.025 0.125 0.25  0 0.125 0.25  0.025 0.025 0.275  0.025 0 0.275  0 0 0.275  0 0.025 0.275  0.05 0.025 0.275  0.05 0 0.275  0.075 0.025 0.275  0.075 0 0.275  0.1 0.025 0.275  0.1 0 0.275  0.125 0.025 0.275  0.125 0 0.275  0.15 0.025 0.275  0.15 0 0.275  0.175 0.025 0.275  0.175 0 0.275  0.2 0.025 0.275  0.2 0 0.275  0.225 0.025 0.275  0.225 0 0.275  0.25 0.025 0.275  0.25 0 0.275  0.275 0.025 0.275  0.275 0 0.275  0.025 0.05 0.275  0 0.05 0.275  0.05 0.05 0.275  0.075 0.05 0.275  0.1 0.05 0.275  0.125 0.05 0.275  0.15 0.05 0.275  0.175 0.05 0.275  0.2 0.05 0.275  0.225 0.05 0.275  0.25 0.05 0.275  0.275 0.05 0.275  0.3 0.05 0.275  0.025 0.075 0.275  0 0.075 0.275  0.05 0.075 0.275  0.075 0.075 0.275  0.1 0.075 0.275  0.125 0.075 0.275  0.15 0.075 0.275  0.175 0.075 0.275  0.2 0.075 0.275  0.225 0.075 0.275  0.25 0.075 0.275  0.275 0.075 0.275  0.3 0.075 0.275  0.025 0.1 0.275  0 0.1 0.275  0.05 0.1 0.275  0.075 0.1 0.275  0.1 0.1 0.275  0.125 0.1 0.275  0.15 0.1 0.275  0.175 0.1 0.275  0.2 0.1 0.275  0.225 0.1 0.275  0.25 0.1 0.275  0.275 0.1 0.275  0.3 0.1 0.275  0.025 0.125 0.275  0 0.125 0.275  0.05 0.125 0.25  0.05 0.125 0.275  0.075 0.125 0.25  0.075 0.125 0.275  0.1 0.125 0.25  0.1 0.125 0.275  0.125 0.125 0.25  0.125 0.125 0.275  0.15 0.125 0.25  0.15 0.125 0.275  0.175 0.125 0.275  0.2 0.125 0.275  0.225 0.125 0.275  0.25 0.125 0.275  0.275 0.125 0.25  0.275 0.125 0.275  0.3 0.125 0.275  0.025 0.15 0.275  0 0.15 0.275  0 0.15 0.25  0.05 0.15 0.275  0.075 0.15 0.275  0.1 0.15 0.275  0.125 0.15 0.275  0.15 0.15 0.275  0.175 0.15 0.275  0.3 0.15 0.275  0.275 0.15 0.275  0.025 0.175 0.275  0 0.175 0.275  0.025 0.025 0.3  0.025 0 0.3  0 0 0.3  0 0.025 0.3  0.05 0.025 0.3  0.05 0 0.3  0.075 0.025 0.3  0.075 0 0.3  0.1 0.025 0.3  0.1 0 0.3  0.125 0.025 0.3  0.125 0 0.3  0.15 0.025 0.3  0.15 0 0.3  0.175 0.025 0.3  0.175 0 0.3  0.2 0.025 0.3  0.2 0 0.3  0.225 0.025 0.3  0.225 0 0.3  0.25 0.025 0.3  0.25 0 0.3  0.275 0.025 0.3  0.275 0 0.3  0.025 0.05 0.3  0 0.05 0.3  0.05 0.05 0.3  0.075 0.05 0.3  0.1 0.05 0.3  0.125 0.05 0.3  0.15 0.05 0.3  0.175 0.05 0.3  0.2 0.05 0.3  0.225 0.05 0.3  0.25 0.05 0.3  0.275 0.05 0.3  0.3 0.05 0.3  0.025 0.075 0.3  0 0.075 0.3  0.05 0.075 0.3  0.075 0.075 0.3  0.1 0.075 0.3  0.125 0.075 0.3  0.15 0.075 0.3  0.175 0.075 0.3  0.2 0.075 0.3  0.225 0.075 0.3  0.25 0.075 0.3  0.275 0.075 0.3  0.3 0.075 0.3  0.025 0.1 0.3  0 0.1 0.3  0.05 0.1 0.3  0.075 0.1 0.3  0.1 0.1 0.3  0.125 0.1 0.3  0.15 0.1 0.3  0.175 0.1 0.3  0.2 0.1 0.3  0.225 0.1 0.3  0.25 0.1 0.3  0.275 0.1 0.3  0.3 0.1 0.3  0.025 0.125 0.3  0 0.125 0.3  0.05 0.125 0.3  0.075 0.125 0.3  0.1 0.125 0.3  0.125 0.125 0.3  0.15 0.125 0.3  0.175 0.125 0.3  0.2 0.125 0.3  0.225 0.125 0.3  0.25 0.125 0.3  0.275 0.125 0.3  0.3 0.125 0.3  0.325 0.125 0.3  0.025 0.15 0.3  0 0.15 0.3  0.05 0.15 0.3  0.075 0.15 0.3  0.1 0.15 0.3  0.125 0.15 0.3  0.15 0.15 0.3  0.175 0.15 0.3  0.2 0.15 0.3  0.225 0.15 0.275  0.225 0.15 0.3  0.25 0.15 0.275  0.25 0.15 0.3  0.275 0.15 0.3  0.3 0.15 0.3  0.325 0.15 0.3  0.025 0.175 0.3  0 0.175 0.3  0.05 0.175 0.3  0.075 0.175 0.3  0.1 0.175 0.3  0.125 0.175 0.3  0.15 0.175 0.3  0.175 0.175 0.3  0.2 0.175 0.3  0.25 0.175 0.3  0.225 0.175 0.3  0.275 0.175 0.3  0.3 0.175 0.3  0.325 0.175 0.3  0.025 0.2 0.3  0 0.2 0.3  0.05 0.2 0.3  0.025 0.025 0.325  0.025 0 0.325  0 0 0.325  0 0.025 0.325  0.05 0.025 0.325  0.05 0 0.325  0.075 0.025 0.325  0.075 0 0.325  0.1 0.025 0.325  0.1 0 0.325  0.125 0.025 0.325  0.125 0 0.325  0.15 0.025 0.325  0.15 0 0.325  0.175 0.025 0.325  0.175 0 0.325  0.2 0.025 0.325  0.2 0 0.325  0.225 0.025 0.325  0.225 0 0.325  0.25 0.025 0.325  0.25 0 0.325  0.275 0.025 0.325  0.275 0 0.325  0.3 0.025 0.325  0.025 0.05 0.325  0 0.05 0.325  0.05 0.05 0.325  0.075 0.05 0.325  0.1 0.05 0.325  0.125 0.05 0.325  0.15 0.05 0.325  0.175 0.05 0.325  0.2 0.05 0.325  0.225 0.05 0.325  0.25 0.05 0.325  0.275 0.05 0.325  0.3 0.05 0.325  0.025 0.075 0.325  0 0.075 0.325  0.05 0.075 0.325  0.075 0.075 0.325  0.1 0.075 0.325  0.125 0.075 0.325  0.15 0.075 0.325  0.175 0.075 0.325  0.2 0.075 0.325  0.225 0.075 0.325  0.25 0.075 0.325  0.275 0.075 0.325  0.3 0.075 0.325  0.025 0.1 0.325  0 0.1 0.325  0.05 0.1 0.325  0.075 0.1 0.325  0.1 0.1 0.325  0.125 0.1 0.325  0.15 0.1 0.325  0.175 0.1 0.325  0.2 0.1 0.325  0.225 0.1 0.325  0.25 0.1 0.325  0.275 0.1 0.325  0.3 0.1 0.325  0.025 0.125 0.325  0 0.125 0.325  0.05 0.125 0.325  0.075 0.125 0.325  0.1 0.125 0.325  0.125 0.125 0.325  0.15 0.125 0.325  0.175 0.125 0.325  0.2 0.125 0.325  0.225 0.125 0.325  0.25 0.125 0.325  0.275 0.125 0.325  0.3 0.125 0.325  0.325 0.125 0.325  0.025 0.15 0.325  0 0.15 0.325  0.05 0.15 0.325  0.075 0.15 0.325  0.1 0.15 0.325  0.125 0.15 0.325  0.15 0.15 0.325  0.175 0.15 0.325  0.2 0.15 0.325  0.225 0.15 0.325  0.25 0.15 0.325  0.275 0.15 0.325  0.3 0.15 0.325  0.325 0.15 0.325  0.025 0.175 0.325  0 0.175 0.325  0.05 0.175 0.325  0.075 0.175 0.325  0.1 0.175 0.325  0.125 0.175 0.325  0.15 0.175 0.325  0.175 0.175 0.325  0.2 0.175 0.325  0.225 0.175 0.325  0.25 0.175 0.325  0.275 0.175 0.325  0.3 0.175 0.325  0.325 0.175 0.325  0.025 0.2 0.325  0 0.2 0.325  0.05 0.2 0.325  0.075 0.2 0.3  0.075 0.2 0.325  0.1 0.2 0.3  0.1 0.2 0.325  0.125 0.2 0.3  0.125 0.2 0.325  0.15 0.2 0.325  0.175 0.2 0.325  0.2 0.2 0.325  0.225 0.2 0.325  0.25 0.2 0.325  0.275 0.2 0.325  0.3 0.2 0.325  0.325 0.2 0.325  0.35 0.2 0.325  0.025 0.225 0.325  0 0.225 0.325  0.05 0.225 0.325  0.075 0.225 0.325  0.1 0.225 0.325  0.125 0.225 0.325  0.15 0.225 0.325  0.025 0.025 0.35  0.025 0 0.35  0 0 0.35  0 0.025 0.35  0.05 0.025 0.35  0.05 0 0.35  0.075 0.025 0.35  0.075 0 0.35  0.1 0.025 0.35  0.1 0 0.35  0.125 0.025 0.35  0.125 0 0.35  0.15 0.025 0.35  0.15 0 0.35  0.175 0.025 0.35  0.175 0 0.35  0.2 0.025 0.35  0.2 0 0.35  0.225 0.025 0.35  0.225 0 0.35  0.25 0.025 0.35  0.25 0 0.35  0.275 0.025 0.35  0.275 0 0.35  0.3 0.025 0.35  0.025 0.05 0.35  0 0.05 0.35  0.05 0.05 0.35  0.075 0.05 0.35  0.1 0.05 0.35  0.125 0.05 0.35  0.15 0.05 0.35  0.175 0.05 0.35  0.2 0.05 0.35  0.225 0.05 0.35  0.25 0.05 0.35  0.275 0.05 0.35  0.3 0.05 0.35  0.025 0.075 0.35  0 0.075 0.35  0.05 0.075 0.35  0.075 0.075 0.35  0.1 0.075 0.35  0.125 0.075 0.35  0.15 0.075 0.35  0.175 0.075 0.35  0.2 0.075 0.35  0.225 0.075 0.35  0.25 0.075 0.35  0.275 0.075 0.35  0.3 0.075 0.35  0.325 0.075 0.35  0.025 0.1 0.35  0 0.1 0.35  0.05 0.1 0.35  0.075 0.1 0.35  0.1 0.1 0.35  0.125 0.1 0.35  0.15 0.1 0.35  0.175 0.1 0.35  0.2 0.1 0.35  0.225 0.1 0.35  0.25 0.1 0.35  0.275 0.1 0.35  0.3 0.1 0.35  0.325 0.1 0.35  0.025 0.125 0.35  0 0.125 0.35  0.05 0.125 0.35  0.075 0.125 0.35  0.1 0.125 0.35  0.125 0.125 0.35  0.15 0.125 0.35  0.175 0.125 0.35  0.2 0.125 0.35  0.225 0.125 0.35  0.25 0.125 0.35  0.275 0.125 0.35  0.3 0.125 0.35  0.325 0.125 0.35  0.025 0.15 0.35  0 0.15 0.35  0.05 0.15 0.35  0.075 0.15 0.35  0.1 0.15 0.35  0.125 0.15 0.35  0.15 0.15 0.35  0.175 0.15 0.35  0.2 0.15 0.35  0.225 0.15 0.35  0.25 0.15 0.35  0.275 0.15 0.35  0.3 0.15 0.35  0.325 0.15 0.35  0.025 0.175 0.35  0 0.175 0.35  0.05 0.175 0.35  0.075 0.175 0.35  0.1 0.175 0.35  0.125 0.175 0.35  0.15 0.175 0.35  0.175 0.175 0.35  0.2 0.175 0.35  0.225 0.175 0.35  0.25 0.175 0.35  0.275 0.175 0.35  0.3 0.175 0.35  0.325 0.175 0.35  0.35 0.175 0.35  0.025 0.2 0.35  0 0.2 0.35  0.05 0.2 0.35  0.075 0.2 0.35  0.1 0.2 0.35  0.125 0.2 0.35  0.15 0.2 0.35  0.175 0.2 0.35  0.2 0.2 0.35  0.225 0.2 0.35  0.25 0.2 0.35  0.275 0.2 0.35  0.3 0.2 0.35  0.325 0.2 0.35  0.35 0.2 0.35  0.025 0.225 0.35  0 0.225 0.35  0.05 0.2
[...]
<PointData  Scalars="f_187"> 
<DataArray  type="Float64"  Name="f_187"  format="ascii">1.0077164412846042e+02  1.0080619689458523e+02  1.0072386631890993e+02  1.0078826314345366e+02  1.0085206702960477e+02  1.0060108981788125e+02  1.0050000939142822e+02  1.0052122530895406e+02  1.0062376534267305e+02  1.0062792090588567e+02  1.0071203405155181e+02  1.0039886455233700e+02  1.0041447712219797e+02  1.0053406171013793e+02  1.0030099704954578e+02  1.0031140341110105e+02  1.0044544390041175e+02  1.0020797880792752e+02  1.0021375903220009e+02  1.0036012333078762e+02  1.0012244533671101e+02  1.0027929662309126e+02  1.0082108349047883e+02  1.0075415297611042e+02  1.0083881887529209e+02  1.0088652282659588e+02  1.0074111925605004e+02  1.0065394738339009e+02  1.0064859150871712e+02  1.0054218850140504e+02  1.0055454641791938e+02  1.0043026045946661e+02  1.0046181950144424e+02  1.0032225465963106e+02  1.0037279914520123e+02  1.0022012643992508e+02  1.0028875365812151e+02  1.0012486425458181e+02  1.0003789828775473e+02  1.0020368164254894e+02  1.0021041001373649e+02  1.0003692039193494e+02  9.9960317078995189e+01  1.0013371330793832e+02  1.0013817558394658e+02  9.9956469352949796e+01  9.9889770158507076e+01  1.0006965158619140e+02  1.0007226407738696e+02  9.9883533405864299e+01  1.0001277196542929e+02  1.0087152880732762e+02  1.0090856486029116e+02  1.0094347764402742e+02  1.0098256271580119e+02  1.0082625100743221e+02  1.0074302858243554e+02  1.0066026204512343e+02  1.0057891244847507e+02  1.0050065098822742e+02  1.0041021556473650e+02  1.0042637950186428e+02  1.0034274027503038e+02  1.0035676307803578e+02  1.0027992183992589e+02  1.0029223111679849e+02  1.0023305994239290e+02  1.0017942038582460e+02  1.0100729151615583e+02  1.0108713076777971e+02  1.0091383218968389e+02  1.0048076779037601e+02  1.0054305441341288e+02  1.0042298025874121e+02  1.0036989634109135e+02  1.0085176605885208e+02  1.0078264253385829e+02  1.0086917951660162e+02  1.0091840932787989e+02  1.0076845647816856e+02  1.0067869617766559e+02  1.0067209070585349e+02  1.0056241529159331e+02  1.0057403236690288e+02  1.0044577002197573e+02  1.0047742050758126e+02  1.0033318286358875e+02  1.0038482375125109e+02  1.0022681012011373e+02  1.0029760007344761e+02  1.0012774310171926e+02  1.0021650735679239e+02  1.0003647182470780e+02  1.0014194584872268e+02  9.9953167114536896e+01  1.0007409989515935e+02  9.9877823020327000e+01  9.9810338039870516e+01  1.0001302526379156e+02  1.0094288765188770e+02  1.0101846649387797e+02  1.0085712639801203e+02  1.0077035658286280e+02  1.0068397095907766e+02  1.0059921226280471e+02  1.0051788224276888e+02  1.0044094538338936e+02  1.0036907948103438e+02  1.0030269438539717e+02  1.0024202897772990e+02  1.0018720834199824e+02  1.0104632772117232e+02  1.0112786405929627e+02  1.0094899042618157e+02  1.0083217917917899e+02  1.0086377687107330e+02  1.0075428358148936e+02  1.0078240866239693e+02  1.0068006475752345e+02  1.0070506395648911e+02  1.0060958949176688e+02  1.0063187858085342e+02  1.0056307915924378e+02  1.0049896040924348e+02  1.0043973449819191e+02  1.0038555502214535e+02  1.0032166846715110e+02  1.0033651922716675e+02  1.0029268080531529e+02  1.0115464420713765e+02  1.0124049977243692e+02  1.0119440362545996e+02  1.0104222148330142e+02  1.0095390920656638e+02  1.0087294605628843e+02  1.0079924134766574e+02  1.0073119490860678e+02  1.0066826824912977e+02  1.0061020040130033e+02  1.0055687593764743e+02  1.0050825465237322e+02  1.0046432258985972e+02  1.0042507379509803e+02  1.0126188842589747e+02  1.0135117609287595e+02  1.0088004371316650e+02  1.0080901821932815e+02  1.0089703142086306e+02  1.0094752130333812e+02  1.0079375521198993e+02  1.0070180441252020e+02  1.0069397228374636e+02  1.0058152219774723e+02  1.0059226666941055e+02  1.0046063791725467e+02  1.0049206039009039e+02  1.0034386720648405e+02  1.0039609475570556e+02  1.0023355745994294e+02  1.0030582460589561e+02  1.0013090796508456e+02  1.0022205224539846e+02  1.0003645924658206e+02  1.0014518585626293e+02  9.9950393578613031e+01  1.0007539445434834e+02  9.9872691328529584e+01  1.0001270493010084e+02  9.9803222502745115e+01  1.0097430016073912e+02  1.0105105014278396e+02  1.0088547017850826e+02  1.0079553216730238e+02  1.0070582468113633e+02  1.0061786918991825e+02  1.0053359563886458e+02  1.0045404428371843e+02  1.0037992222184332e+02  1.0031163666650627e+02  1.0024940394814654e+02  1.0019331544170859e+02  1.0014338306685254e+02  1.0108182798204682e+02  1.0116464091359929e+02  1.0098106503554020e+02  1.0089266467280022e+02  1.0080808928480323e+02  1.0072777742930008e+02  1.0065194163954448e+02  1.0058085901759355e+02  1.0051483199865632e+02  1.0045405444027044e+02  1.0039864578129360e+02  1.0034866109115090e+02  1.0030410941996398e+02  1.0119486514513162e+02  1.0128196677678822e+02  1.0107843025004978e+02  1.0098678056959116e+02  1.0090257686562380e+02  1.0082600402281817e+02  1.0075549008546612e+02  1.0069052186574856e+02  1.0063082206817369e+02  1.0057623884943523e+02  1.0052668356665046e+02  1.0048208917660536e+02  1.0044239689649737e+02  1.0130712412965390e+02  1.0139755525919577e+02  1.0113444080378719e+02  1.0117499402247151e+02  1.0104079738221149e+02  1.0107779372144950e+02  1.0095732844204920e+02  1.0099094435947625e+02  1.0088440104593789e+02  1.0091515196742864e+02  1.0081897240219091e+02  1.0084735032989784e+02  1.0078633530452808e+02  1.0073121797693098e+02  1.0068145062345229e+02  1.0063667141659640e+02  1.0057366341018067e+02  1.0059663269143878e+02  1.0056115774849837e+02  1.0141562323536313e+02  1.0150848149862901e+02  1.0145715806381119e+02  1.0126874871222013e+02  1.0116494597477107e+02  1.0107374563262177e+02  1.0099671271303900e+02  1.0092962690320560e+02  1.0087075370814546e+02  1.0066301084539653e+02  1.0069496389505140e+02  1.0151845245336879e+02  1.0161304848673588e+02  1.0090571599257795e+02  1.0083304175188852e+02  1.0092219004256897e+02  1.0097370757955362e+02  1.0081679265929689e+02  1.0072299418662159e+02  1.0071400464670604e+02  1.0059920739859461e+02  1.0060903665129381e+02  1.0047456446549424e+02  1.0050556891554466e+02  1.0035403542215296e+02  1.0040650158978215e+02  1.0024014297152695e+02  1.0031338601928628e+02  1.0013419218863083e+02  1.0022707575383694e+02  1.0003678009818046e+02  1.0014799694235846e+02  9.9948110245560855e+01  1.0007631401460880e+02  9.9868160224323177e+01  1.0001203499288327e+02  9.9796781951089940e+01  1.0100265843333928e+02  1.0108021744224904e+02  1.0091111270103477e+02  1.0081838449037556e+02  1.0072568318111597e+02  1.0063479864179371e+02  1.0054777916704940e+02  1.0046574517155072e+02  1.0038944248129521e+02  1.0031928742509064e+02  1.0025548549055534e+02  1.0019810479137762e+02  1.0014712733203146e+02  1.0111370752022998e+02  1.0119741880227500e+02  1.0100993251714141e+02  1.0091872174096594e+02  1.0083124306799816e+02  1.0074818946753152e+02  1.0066984787133534e+02  1.0059655607841069e+02  1.0052863748856460e+02  1.0046628223431880e+02  1.0040958911875120e+02  1.0035858258266710e+02  1.0031323630697074e+02  1.0123083931659815e+02  1.0131880701136905e+02  1.0111089464272369e+02  1.0101630107114255e+02  1.0092915858698031e+02  1.0084991787957676e+02  1.0077704248303979e+02  1.0071005983362552e+02  1.0064869404309538e+02  1.0059277478399804e+02  1.0054218082911163e+02  1.0049680515223183e+02  1.0045654636447080e+02  1.0134747497381791e+02  1.0143867425174852e+02  1.0121126128485534e+02  1.0111092437290044e+02  1.0102100804438803e+02  1.0094253847540132e+02  1.0087244304288616e+02  1.0080954144333298e+02  1.0075292691309289e+02  1.0070201804566948e+02  1.0065640750549460e+02  1.0061579718678536e+02  1.0057995941105884e+02  1.0054871332218474e+02  1.0146045411692569e+02  1.0155393098668857e+02  1.0130889259053535e+02  1.0120172275115539e+02  1.0110727013575240e+02  1.0102749331496791e+02  1.0095812276734742e+02  1.0089743663286650e+02  1.0084396026062703e+02  1.0077239391701242e+02  1.0079671011308426e+02  1.0073131623859544e+02  1.0075497206921446e+02  1.0071822731187888e+02  1.0068608991199348e+02  1.0065826722256173e+02  1.0156772542474494e+02  1.0166275780873306e+02  1.0140207880319562e+02  1.0128783221072945e+02  1.0118798366413861e+02  1.0110557455017623e+02  1.0103545478811068e+02  1.0097552276490995e+02  1.0092383388085356e+02  1.0084015176857332e+02  1.0087904637496079e+02  1.0080640554723492e+02  1.0077724981235031e+02  1.0075226336872699e+02  1.0166806685940927e+02  1.0176406958401502e+02  1.0148969711640132e+02  1.0092863350657311e+02  1.0085453444071392e+02  1.0094451864444120e+02  1.0099685797440344e+02  1.0083739929539033e+02  1.0074205338109985e+02  1.0073200584619075e+02  1.0061523493400419e+02  1.0062416811179430e+02  1.0048730857473750e+02  1.0051779832355122e+02  1.0036346107864233e+02  1.0041593820696062e+02  1.0024637155320357e+02  1.0032023018256646e+02  1.0013744384347176e+02  1.0023158078062289e+02  1.0003733238622118e+02  1.0015043986555098e+02  9.9946267405429538e+01  1.0007697484046359e+02  9.9864231244453237e+01  1.0001118276731519e+02  9.9791065806340796e+01  9.9952961346582114e+01  1.0102785878504316e+02  1.0110590350143508e+02  1.0093392778424199e+02  1.0083878030256717e+02  1.0074342968772946e+02  1.0064991999349989e+02  1.0056040383338969e+02  1.0047608020850016e+02  1.0039773759733770e+02  1.0032580872344441e+02  1.0026049674716481e+02  1.0020185496921121e+02  1.0014984313629881e+02  1.0114191260948800e+02  1.0122617909014676e+02  1.0103550669084342e+02  1.0094185702837045e+02  1.0085180060485501e+02  1.0076627480153356e+02  1.0068563281586648e+02  1.0061027626556549e+02  1.0054055656256818e+02  1.0047666981338452e+02  1.0041870435870648e+02  1.0036666356685265e+02  1.0032049408978055e+02  1.0126255868841426e+02  1.0135104292173776e+02  1.0113956197625171e+02  1.0104241380429684e+02  1.0095265900744134e+02  1.0087100156479160e+02  1.0079593979944939e+02  1.0072704901392095e+02  1.0066406540931625e+02  1.0060681270608967e+02  1.0055514934704897e+02  1.0050893937092849e+02  1.0046804812825060e+02  1.0138296935937204e+02  1.0147458771264694e+02  1.0124321497281282e+02  1.0114015755777439e+02  1.0104751449467379e+02  1.0096661219698410e+02  1.0089437857694156e+02  1.0082966770854296e+02  1.0077156943651983e+02  1.0071948409011121e+02  1.0067297336426894e+02  1.0063170146298535e+02  1.0059540028643097e+02  1.0056384890353944e+02  1.0149983210654413e+02  1.0159358324637624e+02  1.0134421229508800e+02  1.0123412300725212e+02  1.0113677949304848e+02  1.0105450459283425e+02  1.0098299366523349e+02  1.0092055054706704e+02  1.0086568256788181e+02  1.0081737620330551e+02  1.0077487572640493e+02  1.0073761560317689e+02  1.0070516188903875e+02  1.0067717562038754e+02  1.0161097273449025e+02  1.0170610385906271e+02  1.0144074577555538e+02  1.0132336727984442e+02  1.0122043586057877e+02  1.0113542989585592e+02  1.0106313090496731e+02  1.0100145791625533e+02  1.0094843494300893e+02  1.0090267970451521e+02  1.0086313197871900e+02  1.0082899170968101e+02  1.0079964535854832e+02  1.0077461900948883e+02  1.0171507689386944e+02  1.0181098351608433e+02  1.0153161758028077e+02  1.0136856426501623e+02  1.0140713861827436e+02  1.0126300969142075e+02  1.0129829591770083e+02  1.0117720346762327e+02  1.0120977369394207e+02  1.0113567314063897e+02  1.0107366233209062e+02  1.0102138610053291e+02  1.0097715372685197e+02  1.0093963264820610e+02  1.0090780105077773e+02  1.0088086689859945e+02  1.0085821597616314e+02  1.0083937105855176e+02  1.0181135551019126e+02  1.0190754153554961e+02  1.0161602277123367e+02  1.0148487043845429e+02  1.0137015460968652e+02  1.0127773965395384e+02  1.0120121134142792e+02  1.0094868599244342e+02  1.0087336309000983e+02  1.0096391689559327e+02  1.0101689331256274e+02  1.0085544731712673e+02  1.0075882097391397e+02  1.0074783474622363e+02  1.0062942171193752e+02  1.0063752124354706e+02  1.0049867850898342e+02  1.0052862469826943e+02  1.0037195906678888e+02  1.0042430947211918e+02  1.0025207854040485e+02  1.0032630033677405e+02  1.0014052944549275e+02  1.0023555481604262e+02  1.0003802087057744e+02  1.0015254879155857e+02  9.9944811624896587e+01  1.0007745738212651e+02  9.9860893395262906e+01  1.0001027252153429e+02  9.9786103929057504e+01  9.9950878428361221e+01  1.0104982793528265e+02  1.0112806626045005e+02  1.0095382291847402e+02  1.0085661765252127e+02  1.0075897010651610e+02  1.0066316237913061e+02  1.0057143520258825e+02  1.0048506063846285e+02  1.0040486968263119e+02  1.0033131509792523e+02  1.0026460335878896e+02  1.0020477935649841e+02  1.0015178694237420e+02  1.0116641171908550e+02  1.0125091887658745e+02  1.0105772914184149e+02  1.0096200395777407e+02  1.0086970674641478e+02  1.0078200728278078e+02  1.0069931361899300e+02  1.0062208952654656e+02  1.0055071688019601e+02  1.0048540346283909e+02  1.0042623427177985e+02  1.0037319905998972e+02  1.0032622452676983e+02  1.0028519957896225e+02  1.0129003159201437e+02  1.0137870788942971e+02  1.0116440395750779e+02  1.0106508225266847e+02  1.0097305484232297e+02  1.0088926546730455e+02  1.0081224176277571e+02  1.0074160863444136e+02  1.0067711980483010e+02  1.0061860113762472e+02  1.0056589969036237e+02  1.0051885940102707e+02  1.0047732042860879e+02  1.0044112241950077e+02  1.0141364936073130e+02  1.0150535920440893e+02  1.0127085107102396e+02  1.0116548045807824e+02  1.0107046507848492e+02  1.0098741206582291e+02  1.0091325053440437e+02  1.0084687338399036e+02  1.0078737558411594e+02  1.0073414973307555e+02  1.0068673749338438e+02  1.0064477576758721e+02  1.0060796527311416e+02  1.0057605285432830e+02  1.0153382502444003e+02  1.0162752454663648e+02  1.0137472139000872e+02  1.0126215088126827e+02  1.0116229273174035e+02  1.0107780652408559e+02  1.0100435899519294e+02  1.0094028616424703e+02  1.0088408877260483e+02  1.0083473614851674e+02  1.0079144390085924e+02  1.0075361177267206e+02  1.0072076829645867e+02  1.0069253698885535e+02  1.0164827949756392e+02  1.0174318796962882e+02  1.0147412235304351e+02  1.0135408270463697e+02  1.0124847016004973e+02  1.0116116380947355e+02  1.0108688843408763e+02  1.0102359167424746e+02  1.0096928019519103e+02  1.0092254612418844e+02  1.0088229234232817e+02  1.0084767681076812e+02  1.0081804210608894e+02  1.0079287136964665e+02  1.0077175608444895e+02  1.0175561845144520e+02  1.0185111361901886e+02  1.0156779102366407e+02  1.0144046893556738e+02  1.0132876668294719e+02  1.0123783755125881e+02  1.0116169961555704e+02  1.0109804812801084e+02  1.0104450114048126e+02  1.0099933499927921e+02  1.0096117266071781e+02  1.0092894349881112e+02  1.0090180545706868e+02  1.0087909604700850e+02  1.0086029345068985e+02  1.0185499165244573e+02  1.0195056763952348e+02  1.0165487105486767e+02  1.0152069839211444e+02  1.0140294202565639e+02  1.0130800479291051e+02  1.0122936473459693e+02  1.0116456939226293e+02  1.0111094161518869e+02  1.0106650447425837e+02  1.0100593414225442e+02  1.0102964207059361e+02  1.0104220235422316e+02  1.0097570751146999e+02  1.0099907881003286e+02  1.0095056319873936e+02  1.0097379967031085e+02  1.0095300035432423e+02  1.0093604485285576e+02  1.0194590451684432e+02  1.0204113927022416e+02  1.0199540713179088e+02  1.0173481252668266e+02  1.0159435050237614e+02  1.0147080371567708e+02  1.0137176093919193e+02  1.0129027837781989e+02  1.0122383003549423e+02  1.0108897703270969e+02  1.0112517252846260e+02  1.0105948040251246e+02  1.0103551236069582e+02  1.0101613681711726e+02  1.0202809777481619e+02  1.0212262918942135e+02  1.0096579307601310e+02  1.0088942931852486e+02  1.0098031211007186e+02  1.0103375769320066e+02  1.0087084146528386e+02  1.0077317574008086e+02  1.0076138332357120e+02  1.0064162701977692e+02  1.0064898590171865e+02  1.0050852369298670e+02  1.0053794695644167e+02  1.0037938059658019e+02  1.0043153388481427e+02  1.0025712807594635e+02  1.0033154300895870e+02  1.0014333531440992e+02  1.0023897820990545e+02  1.0003876070395766e+02  1.0015434102084588e+02  9.9943690864585463e+01  1.0007781666669437e+02  9.9858129007472812e+01  1.0000939590852842e+02  9.9781912616709945e+01  9.9714788787770829e+01  9.9948954144500320e+01  1.0106851530263479e+02  1.0114667994085050e+02  1.0097073140793267e+02  1.0087181996473134e+02  1.0077223067447312e+02  1.0067446668099218e+02  1.0058083964620764e+02  1.0049268660153034e+02  1.0041087801441219e+02  1.0033588750011282e+02  1.0026792806413698e+02  1.0020704070950967e+02  1.0015315842188505e+02  1.0010615152248482e+02  1.0118718874755481e+02  1.0127164494440152e+02  1.0107656174431139e+02  1.0097911528023741e+02  1.0088491957499676e+02  1.0079536385329442e+02  1.0071089785917853e+02  1.0063204268116395e+02  1.0055920979244753e+02  1.0049262122686393e+02  1.0043236316192431e+02  1.0037841723148615e+02  1.0033069591585203e+02  1.0028907046209834e+02  1.0131327590898874e+02  1.0140183981105922e+02  1.0118540869796522e+02  1.0108428503322381e+02  1.0099033109136298e+02  1.0090471672127489e+02  1.0082599058131265e+02  1.0075382522633733e+02  1.0068799352818193e+02  1.0062832810465625e+02  1.0057467074758279e+02  1.0052685203981264e+02  1.0048469362806206e+02  1.0044801402085187e+02  1.0143956285281902e+02  1.0153105358877154e+02  1.0129417991821643e+02  1.0118689309026504e+02  1.0108986651217059e+02  1.0100496955860748e+02  1.0092912931759166e+02  1.0086127785394933e+02  1.0080051945349305e+02  1.0074624566802305e+02  1.0069798598137930e+02  1.0065535814046586e+02  1.0061803945734049e+02  1.0058575158455697e+02  1.0055825337843163e+02  1.0156250500959555e+02  1.0165584124682285e+02  1.0140044752416898e+02  1.0128582280621445e+02  1.0118383305785495e+02  1.0109744930003814e+02  1.0102231127728290e+02  1.0095678922508188e+02  1.0089938391032696e+02  1.0084905616156354e+02  1.0080500252110450e+02  1.0076659759812354e+02  1.0073334134916776e+02  1.0070482772510303e+02  1.0068072438735528e+02  1.0167973572987343e+02  1.0177411214335781e+02  1.0150224830137526e+02  1.0138000631245900e+02  1.0127212128010999e+02  1.0118283999092806e+02  1.0110683646745122e+02  1.0104209019668319e+02  1.0098659928219051e+02  1.0093894068616568e+02  1.0089799165071808e+02  1.0086287915113751e+02  1.0083291200156499e+02  1.0080753930284538e+02  1.0078632002958587e+02  1.0178979317489825e+02  1.0188457193365565e+02  1.0159826438031759e+02  1.0146858975673597e+02  1.0135446371868485e+02  1.0126146763078198e+02  1.0118354626045482e+02  1.0111842609980967e+02  1.0106370908585117e+02  1.0101765061958639e+02  1.0097884195354531e+02  1.0094617596666829e+02  1.0091877183483169e+02  1.0089592863173922e+02  1.0087708825032195e+02  1.0189177474094770e+02  1.0198644160848717e+02  1.0168759544361831e+02  1.0155092362534424e+02  1.0143058962020659e+02  1.0133348595567412e+02  1.0125299609729566e+02  1.0118669962796646e+02  1.0113189676484322e+02  1.0108658470999485e+02  1.0104911042304694e+02  1.0101815677451680e+02  1.0099266528831404e+02  1.0097178904357560e+02  1.0095485208868855e+02  1.0094131857354795e+02  1.0198514572343107e+02  1.0207927592344264e+02  1.0176965741171816e+02  1.0162655716991009e+02  1.0150028199472278e+02  1.0139897125836058e+02  1.0131556671608658e+02  1.0124757619712237e+02  1.0116951927586283e+02  1.0119207485020938e+02  1.0114685912440447e+02  1.0111007434581190e+02  1.0108022208402949e+02  1.0105608432900138e+02  1.0103667848505039e+02  1.0100060834903570e+02  1.0102121575191393e+02  1.0100906849804124e+02  1.0206961665435276e+02  1.0216284968107469e+02  1.0184408975370179e+02  1.0169519504818399e+02  1.0156338887167551e+02  1.0145797384578802e+02  1.0137153469272172e+02  1.0130155819941299e+02  1.0124495415125163e+02  1.0119936675488357e+02  1.0116277909504799e+02  1.0113354075412859e+02  1.0111029505734429e+02  1.0109193776122025e+02  1.0107757611647966e+02  1.0106649594821602e+02  1.0214506049744034e+02  1.0223708168794185e+02  1.0191068878161580e+02  1.0097989709274587e+02  1.0090266139841657e+02  1.0099365247919488e+02  1.0104741247820859e+02  1.0088351178110267e+02  1.0078502754101935e+02  1.0077257022708413e+02  1.0065174417101453e+02  1.006584770324424