<?xml version="1.0"?>
<VTKFile type="UnstructuredGrid"  version="0.1"  >
<UnstructuredGrid>
<Piece  NumberOfPoints="18579" NumberOfCells="98284">
<Points>
<DataArray  type="Float64"  NumberOfComponents="3"  format="ascii">0.525 0 0  0.55 0 0  0.55 0.025 0  0.55 0.025 0.025  0.55 0 0.025  0.575 0 0  0.575 0.025 0  0.575 0.025 0.025  0.575 0 0.025  0.6 0 0  0.6 0.025 0  0.6 0.025 0.025  0.6 0 0.025  0.625 0 0  0.625 0.025 0  0.625 0.025 0.025  0.625 0 0.025  0.65 0 0  0.65 0.025 0  0.65 0.025 0.025  0.65 0 0.025  0.675 0 0  0.675 0.025 0  0.675 0.025 0.025  0.675 0 0.025  0.7 0 0  0.7 0.025 0  0.7 0.025 0.025  0.7 0 0.025  0.725 0 0  0.725 0.025 0  0.725 0.025 0.025  0.725 0 0.025  0.75 0 0  0.75 0.025 0  0.75 0.025 0.025  0.75 0 0.025  0.775 0 0  0.775 0.025 0  0.775 0.025 0.025  0.775 0 0.025  0.8 0 0  0.8 0.025 0  0.8 0.025 0.025  0.8 0 0.025  0.825 0 0  0.825 0.025 0  0.825 0.025 0.025  0.825 0 0.025  0.85 0 0  0.85 0.025 0  0.85 0.025 0.025  0.85 0 0.025  0.875 0 0  0.875 0.025 0  0.875 0.025 0.025  0.875 0 0.025  0.9 0 0  0.9 0.025 0  0.9 0.025 0.025  0.9 0 0.025  0.925 0 0  0.925 0.025 0  0.925 0.025 0.025  0.925 0 0.025  0.95 0 0  0.95 0.025 0  0.95 0.025 0.025  0.95 0 0.025  0.975 0 0  0.975 0.025 0  0.975 0.025 0.025  0.975 0 0.025  1 0 0  1 0.025 0  1 0.025 0.025  1 0 0.025  0.6 0.05 0  0.6 0.05 0.025  0.625 0.05 0  0.625 0.05 0.025  0.65 0.05 0  0.65 0.05 0.025  0.675 0.05 0  0.675 0.05 0.025  0.7 0.05 0  0.7 0.05 0.025  0.725 0.05 0  0.725 0.05 0.025  0.75 0.05 0  0.75 0.05 0.025  0.775 0.05 0  0.775 0.05 0.025  0.8 0.05 0  0.8 0.05 0.025  0.825 0.05 0  0.825 0.05 0.025  0.85 0.05 0  0.85 0.05 0.025  0.875 0.05 0  0.875 0.05 0.025  0.9 0.05 0  0.9 0.05 0.025  0.925 0.05 0  0.925 0.05 0.025  0.95 0.05 0  0.95 0.05 0.025  0.975 0.05 0  0.975 0.05 0.025  1 0.05 0  1 0.05 0.025  0.65 0.075 0  0.65 0.075 0.025  0.675 0.075 0  0.675 0.075 0.025  0.7 0.075 0  0.7 0.075 0.025  0.725 0.075 0  0.725 0.075 0.025  0.75 0.075 0  0.75 0.075 0.025  0.775 0.075 0  0.775 0.075 0.025  0.8 0.075 0  0.8 0.075 0.025  0.825 0.075 0  0.825 0.075 0.025  0.85 0.075 0  0.85 0.075 0.025  0.875 0.075 0  0.875 0.075 0.025  0.9 0.075 0  0.9 0.075 0.025  0.925 0.075 0  0.925 0.075 0.025  0.95 0.075 0  0.95 0.075 0.025  0.975 0.075 0  0.975 0.075 0.025  1 0.075 0  1 0.075 0.025  0.675 0.1 0.025  0.7 0.1 0  0.7 0.1 0.025  0.725 0.1 0  0.725 0.1 0.025  0.75 0.1 0  0.75 0.1 0.025  0.775 0.1 0  0.775 0.1 0.025  0.8 0.1 0  0.8 0.1 0.025  0.825 0.1 0  0.825 0.1 0.025  0.85 0.1 0  0.85 0.1 0.025  0.875 0.1 0  0.875 0.1 0.025  0.9 0.1 0  0.9 0.1 0.025  0.925 0.1 0  0.925 0.1 0.025  0.95 0.1 0  0.95 0.1 0.025  0.975 0.1 0  0.975 0.1 0.025  1 0.1 0  1 0.1 0.025  0.725 0.125 0.025  0.75 0.125 0  0.75 0.125 0.025  0.775 0.125 0  0.775 0.125 0.025  0.8 0.125 0  0.8 0.125 0.025  0.825 0.125 0  0.825 0.125 0.025  0.85 0.125 0  0.85 0.125 0.025  0.875 0.125 0  0.875 0.125 0.025  0.9 0.125 0  0.9 0.125 0.025  0.925 0.125 0  0.925 0.125 0.025  0.95 0.125 0  0.95 0.125 0.025  0.975 0.125 0  0.975 0.125 0.025  1 0.125 0  1 0.125 0.025  0.8 0.15 0.025  0.825 0.15 0  0.825 0.15 0.025  0.85 0.15 0  0.85 0.15 0.025  0.875 0.15 0  0.875 0.15 0.025  0.9 0.15 0  0.9 0.15 0.025  0.925 0.15 0  0.925 0.15 0.025  0.95 0.15 0  0.95 0.15 0.025  0.975 0.15 0  0.975 0.15 0.025  1 0.15 0  1 0.15 0.025  0.85 0.175 0.025  0.875 0.175 0  0.875 0.175 0.025  0.9 0.175 0  0.9 0.175 0.025  0.925 0.175 0  0.925 0.175 0.025  0.95 0.175 0  0.95 0.175 0.025  0.975 0.175 0  0.975 0.175 0.025  1 0.175 0  1 0.175 0.025  0.9 0.2 0.025  0.925 0.2 0.025  0.95 0.2 0  0.95 0.2 0.025  0.975 0.2 0  0.975 0.2 0.025  1 0.2 0  1 0.2 0.025  0.975 0.225 0.025  1 0.225 0.025  0.575 0.025 0.05  0.575 0 0.05  0.55 0 0.05  0.55 0.025 0.05  0.6 0.025 0.05  0.6 0 0.05  0.625 0.025 0.05  0.625 0 0.05  0.65 0.025 0.05  0.65 0 0.05  0.675 0.025 0.05  0.675 0 0.05  0.7 0.025 0.05  0.7 0 0.05  0.725 0.025 0.05  0.725 0 0.05  0.75 0.025 0.05  0.75 0 0.05  0.775 0.025 0.05  0.775 0 0.05  0.8 0.025 0.05  0.8 0 0.05  0.825 0.025 0.05  0.825 0 0.05  0.85 0.025 0.05  0.85 0 0.05  0.875 0.025 0.05  0.875 0 0.05  0.9 0.025 0.05  0.9 0 0.05  0.925 0.025 0.05  0.925 0 0.05  0.95 0.025 0.05  0.95 0 0.05  0.975 0.025 0.05  0.975 0 0.05  1 0.025 0.05  1 0 0.05  0.575 0.05 0.05  0.6 0.05 0.05  0.625 0.05 0.05  0.65 0.05 0.05  0.675 0.05 0.05  0.7 0.05 0.05  0.725 0.05 0.05  0.75 0.05 0.05  0.775 0.05 0.05  0.8 0.05 0.05  0.825 0.05 0.05  0.85 0.05 0.05  0.875 0.05 0.05  0.9 0.05 0.05  0.925 0.05 0.05  0.95 0.05 0.05  0.975 0.05 0.05  1 0.05 0.05  0.625 0.075 0.05  0.65 0.075 0.05  0.675 0.075 0.05  0.7 0.075 0.05  0.725 0.075 0.05  0.75 0.075 0.05  0.775 0.075 0.05  0.8 0.075 0.05  0.825 0.075 0.05  0.85 0.075 0.05  0.875 0.075 0.05  0.9 0.075 0.05  0.925 0.075 0.05  0.95 0.075 0.05  0.975 0.075 0.05  1 0.075 0.05  0.675 0.1 0.05  0.7 0.1 0.05  0.725 0.1 0.05  0.75 0.1 0.05  0.775 0.1 0.05  0.8 0.1 0.05  0.825 0.1 0.05  0.85 0.1 0.05  0.875 0.1 0.05  0.9 0.1 0.05  0.925 0.1 0.05  0.95 0.1 0.05  0.975 0.1 0.05  1 0.1 0.05  0.7 0.125 0.05  0.725 0.125 0.05  0.75 0.125 0.05  0.775 0.125 0.05  0.8 0.125 0.05  0.825 0.125 0.05  0.85 0.125 0.05  0.875 0.125 0.05  0.9 0.125 0.05  0.925 0.125 0.05  0.95 0.125 0.05  0.975 0.125 0.05  1 0.125 0.05  0.775 0.15 0.05  0.8 0.15 0.05  0.825 0.15 0.05  0.85 0.15 0.05  0.875 0.15 0.05  0.9 0.15 0.05  0.925 0.15 0.05  0.95 0.15 0.05  0.975 0.15 0.05  1 0.15 0.05  0.85 0.175 0.05  0.875 0.175 0.05  0.9 0.175 0.05  0.925 0.175 0.05  0.95 0.175 0.05  0.975 0.175 0.05  1 0.175 0.05  0.9 0.2 0.05  0.925 0.2 0.05  0.95 0.2 0.05  0.975 0.2 0.05  1 0.2 0.05  0.975 0.225 0.05  1 0.225 0.05  0.575 0.025 0.075  0.575 0 0.075  0.55 0 0.075  0.55 0.025 0.075  0.6 0.025 0.075  0.6 0 0.075  0.625 0.025 0.075  0.625 0 0.075  0.65 0.025 0.075  0.65 0 0.075  0.675 0.025 0.075  0.675 0 0.075  0.7 0.025 0.075  0.7 0 0.075  0.725 0.025 0.075  0.725 0 0.075  0.75 0.025 0.075  0.75 0 0.075  0.775 0.025 0.075  0.775 0 0.075  0.8 0.025 0.075  0.8 0 0.075  0.825 0.025 0.075  0.825 0 0.075  0.85 0.025 0.075  0.85 0 0.075  0.875 0.025 0.075  0.875 0 0.075  0.9 0.025 0.075  0.9 0 0.075  0.925 0.025 0.075  0.925 0 0.075  0.95 0.025 0.075  0.95 0 0.075  0.975 0.025 0.075  0.975 0 0.075  1 0.025 0.075  1 0 0.075  0.575 0.05 0.075  0.6 0.05 0.075  0.625 0.05 0.075  0.65 0.05 0.075  0.675 0.05 0.075  0.7 0.05 0.075  0.725 0.05 0.075  0.75 0.05 0.075  0.775 0.05 0.075  0.8 0.05 0.075  0.825 0.05 0.075  0.85 0.05 0.075  0.875 0.05 0.075  0.9 0.05 0.075  0.925 0.05 0.075  0.95 0.05 0.075  0.975 0.05 0.075  1 0.05 0.075  0.6 0.075 0.075  0.625 0.075 0.075  0.65 0.075 0.075  0.675 0.075 0.075  0.7 0.075 0.075  0.725 0.075 0.075  0.75 0.075 0.075  0.775 0.075 0.075  0.8 0.075 0.075  0.825 0.075 0.075  0.85 0.075 0.075  0.875 0.075 0.075  0.9 0.075 0.075  0.925 0.075 0.075  0.95 0.075 0.075  0.975 0.075 0.075  1 0.075 0.075  0.65 0.1 0.075  0.675 0.1 0.075  0.65 0.1 0.05  0.7 0.1 0.075  0.725 0.1 0.075  0.75 0.1 0.075  0.775 0.1 0.075  0.8 0.1 0.075  0.825 0.1 0.075  0.85 0.1 0.075  0.875 0.1 0.075  0.9 0.1 0.075  0.925 0.1 0.075  0.95 0.1 0.075  0.975 0.1 0.075  1 0.1 0.075  0.675 0.125 0.075  0.7 0.125 0.075  0.725 0.125 0.075  0.75 0.125 0.075  0.775 0.125 0.075  0.8 0.125 0.075  0.825 0.125 0.075  0.85 0.125 0.075  0.875 0.125 0.075  0.9 0.125 0.075  0.925 0.125 0.075  0.95 0.125 0.075  0.975 0.125 0.075  1 0.125 0.075  0.725 0.15 0.075  0.75 0.15 0.075  0.775 0.15 0.075  0.8 0.15 0.075  0.825 0.15 0.075  0.85 0.15 0.075  0.875 0.15 0.075  0.9 0.15 0.075  0.925 0.15 0.075  0.95 0.15 0.075  0.975 0.15 0.075  1 0.15 0.075  0.8 0.175 0.075  0.825 0.175 0.075  0.85 0.175 0.075  0.875 0.175 0.075  0.9 0.175 0.075  0.925 0.175 0.075  0.95 0.175 0.075  0.975 0.175 0.075  1 0.175 0.075  0.875 0.2 0.075  0.9 0.2 0.075  0.925 0.2 0.075  0.95 0.2 0.075  0.975 0.2 0.075  1 0.2 0.075  0.95 0.225 0.075  0.975 0.225 0.075  1 0.225 0.075  0.575 0.025 0.1  0.575 0 0.1  0.55 0 0.1  0.55 0.025 0.1  0.6 0.025 0.1  0.6 0 0.1  0.625 0.025 0.1  0.625 0 0.1  0.65 0.025 0.1  0.65 0 0.1  0.675 0.025 0.1  0.675 0 0.1  0.7 0.025 0.1  0.7 0 0.1  0.725 0.025 0.1  0.725 0 0.1  0.75 0.025 0.1  0.75 0 0.1  0.775 0.025 0.1  0.775 0 0.1  0.8 0.025 0.1  0.8 0 0.1  0.825 0.025 0.1  0.825 0 0.1  0.85 0.025 0.1  0.85 0 0.1  0.875 0.025 0.1  0.875 0 0.1  0.9 0.025 0.1  0.9 0 0.1  0.925 0.025 0.1  0.925 0 0.1  0.95 0.025 0.1  0.95 0 0.1  0.975 0.025 0.1  0.975 0 0.1  1 0.025 0.1  1 0 0.1  0.575 0.05 0.1  0.6 0.05 0.1  0.625 0.05 0.1  0.65 0.05 0.1  0.675 0.05 0.1  0.7 0.05 0.1  0.725 0.05 0.1  0.75 0.05 0.1  0.775 0.05 0.1  0.8 0.05 0.1  0.825 0.05 0.1  0.85 0.05 0.1  0.875 0.05 0.1  0.9 0.05 0.1  0.925 0.05 0.1  0.95 0.05 0.1  0.975 0.05 0.1  1 0.05 0.1  0.6 0.075 0.1  0.625 0.075 0.1  0.65 0.075 0.1  0.675 0.075 0.1  0.7 0.075 0.1  0.725 0.075 0.1  0.75 0.075 0.1  0.775 0.075 0.1  0.8 0.075 0.1  0.825 0.075 0.1  0.85 0.075 0.1  0.875 0.075 0.1  0.9 0.075 0.1  0.925 0.075 0.1  0.95 0.075 0.1  0.975 0.075 0.1  1 0.075 0.1  0.625 0.1 0.075  0.625 0.1 0.1  0.6 0.1 0.1  0.65 0.1 0.1  0.675 0.1 0.1  0.7 0.1 0.1  0.725 0.1 0.1  0.75 0.1 0.1  0.775 0.1 0.1  0.8 0.1 0.1  0.825 0.1 0.1  0.85 0.1 0.1  0.875 0.1 0.1  0.9 0.1 0.1  0.925 0.1 0.1  0.95 0.1 0.1  0.975 0.1 0.1  1 0.1 0.1  0.65 0.125 0.1  0.625 0.125 0.1  0.675 0.125 0.1  0.7 0.125 0.1  0.725 0.125 0.1  0.75 0.125 0.1  0.775 0.125 0.1  0.8 0.125 0.1  0.825 0.125 0.1  0.85 0.125 0.1  0.875 0.125 0.1  0.9 0.125 0.1  0.925 0.125 0.1  0.95 0.125 0.1  0.975 0.125 0.1  1 0.125 0.1  0.7 0.15 0.1  0.725 0.15 0.1  0.75 0.15 0.1  0.775 0.15 0.1  0.8 0.15 0.1  0.825 0.15 0.1  0.85 0.15 0.1  0.875 0.15 0.1  0.9 0.15 0.1  0.925 0.15 0.1  0.95 0.15 0.1  0.975 0.15 0.1  1 0.15 0.1  0.775 0.175 0.1  0.8 0.175 0.1  0.825 0.175 0.1  0.85 0.175 0.1  0.875 0.175 0.1  0.9 0.175 0.1  0.925 0.175 0.1  0.95 0.175 0.1  0.975 0.175 0.1  1 0.175 0.1  0.85 0.2 0.1  0.875 0.2 0.1  0.9 0.2 0.1  0.925 0.2 0.1  0.95 0.2 0.1  0.975 0.2 0.1  1 0.2 0.1  0.925 0.225 0.1  0.95 0.225 0.1  0.975 0.225 0.1  1 0.225 0.1  0.45 0 0.1  0.475 0 0.1  0.
[...]
<PointData  Scalars="f_131"> 
<DataArray  type="Float64"  Name="f_131"  format="ascii">9.9638243752433098e+01  9.9647448842862460e+01  9.9645556404591758e+01  9.9693359148246429e+01  9.9645556404592952e+01  9.9662746664533287e+01  9.9660863560612185e+01  9.9708526817123428e+01  9.9660863560613109e+01  9.9684110113971457e+01  9.9682242290034651e+01  9.9729707330872458e+01  9.9682242290034253e+01  9.9711494463542166e+01  9.9709649834126978e+01  9.9756854491832357e+01  9.9709649834126807e+01  9.9744831152823451e+01  9.9743020332457348e+01  9.9789897712136437e+01  9.9743020332457206e+01  9.9784019377780226e+01  9.9782256538257599e+01  9.9828733413966148e+01  9.9782256538257784e+01  9.9828914732868938e+01  9.9827218748682085e+01  9.9873213611823573e+01  9.9827218748681062e+01  9.9879315343471305e+01  9.9877711002503574e+01  9.9923131205756277e+01  9.9877711002503304e+01  9.9934940721616655e+01  9.9933461307563064e+01  9.9978200273453623e+01  9.9933461307563860e+01  9.9995415406182929e+01  9.9994102972590625e+01  1.0003803251769799e+02  9.9994102972591108e+01  1.0006020835226504e+02  1.0005912565217280e+02  1.0010209817810075e+02  1.0005912565217321e+02  1.0012868645779726e+02  1.0012789606587570e+02  1.0016970172232882e+02  1.0012789606587535e+02  1.0019972680078554e+02  1.0019938812002322e+02  1.0023984584716048e+02  1.0019938812002287e+02  1.0027271322819936e+02  1.0027282750107872e+02  1.0031140285662909e+02  1.0027282750107902e+02  1.0034393535440168e+02  1.0034518011292423e+02  1.0038206251576688e+02  1.0034518011292410e+02  1.0041701016764802e+02  1.0041869761055570e+02  1.0045135337488111e+02  1.0041869761055537e+02  1.0047203216824209e+02  1.0047700267579597e+02  1.0050924297202073e+02  1.0047700267579614e+02  1.0054425665516889e+02  1.0055220583751122e+02  1.0057325207122651e+02  1.0055220583751128e+02  1.0054065527067711e+02  1.0055152633007192e+02  1.0057132629804283e+02  1.0055152633007206e+02  9.9677646932544476e+01  9.9761846518682148e+01  9.9705122238686073e+01  9.9788771840591679e+01  9.9738589964178686e+01  9.9821544540511795e+01  9.9777962430131709e+01  9.9860061249953660e+01  9.9823112441778662e+01  9.9904174249140539e+01  9.9873860465137753e+01  9.9953676905461137e+01  9.9929955896361889e+01  1.0000828382801348e+02  9.9991061607048280e+01  1.0006760864589745e+02  1.0005670444642469e+02  1.0013112208220096e+02  1.0012631553876628e+02  1.0019814159536743e+02  1.0019892219528178e+02  1.0026765647580989e+02  1.0027397601181933e+02  1.0033865230170332e+02  1.0034832474972984e+02  1.0040860287243672e+02  1.0042561491056541e+02  1.0047808940531864e+02  1.0048682421328856e+02  1.0053472520656156e+02  1.0057429685056198e+02  1.0060540320846231e+02  1.0056956345639469e+02  1.0059453153690333e+02  9.9731876072253542e+01  9.9843359575079930e+01  9.9771498530163925e+01  9.9881675240623039e+01  9.9816988469566340e+01  9.9925580420365748e+01  9.9868193871133073e+01  9.9974881686035445e+01  9.9924900218207014e+01  1.0002931141509926e+02  9.9986818279385545e+01  1.0008850745852844e+02  1.0005353939048369e+02  1.0015197495466442e+02  1.0012458447768638e+02  1.0021908033805620e+02  1.0019910193620598e+02  1.0028888873193027e+02  1.0027674236828091e+02  1.0036050050586954e+02  1.0035452099308998e+02  1.0043155761935598e+02  1.0043679941527556e+02  1.0050304477943946e+02  1.0050346781952622e+02  1.0056230905639704e+02  1.0060194832849719e+02  1.0063980343578335e+02  1.0059521653492979e+02  1.0062584399480976e+02  9.9896355606107818e+01  9.9809245873336394e+01  9.9940249017526895e+01  9.9861138311735530e+01  9.9989604547644888e+01  9.9918750539329224e+01  1.0004418848301616e+02  9.9981857271141976e+01  1.0010368367652258e+02  1.0005013266621692e+02  1.0016765514764064e+02  1.0012320911584210e+02  1.0023555186730360e+02  1.0020037094296656e+02  1.0030654597420320e+02  1.0028148010425333e+02  1.0037990198377567e+02  1.0036367428883459e+02  1.0045340228933044e+02  1.0045186887465509e+02  1.0052844375256751e+02  1.0052483198013823e+02  1.0059180374485099e+02  1.0063308186259169e+02  1.0067633070496058e+02  1.0062588092867826e+02  1.0066143038817056e+02  9.9999663206963589e+01  9.9911966425449421e+01  1.0005474391902871e+02  9.9976625130278450e+01  1.0011496562343207e+02  1.0004689523699327e+02  1.0017996875273897e+02  1.0012252416750103e+02  1.0024929819074676e+02  1.0020292738193280e+02  1.0032224180759940e+02  1.0028813913672873e+02  1.0039821076037023e+02  1.0037536656288258e+02  1.0047509246875508e+02  1.0046984216306538e+02  1.0055451649019024e+02  1.0054926222314258e+02  1.0062262049281772e+02  1.0066603235122392e+02  1.0071375054770077e+02  1.0065921341745884e+02  1.0069872070905257e+02  1.0019004620800207e+02  1.0012268113205337e+02  1.0026133483821920e+02  1.0020674500702667e+02  1.0033680819521166e+02  1.0029644230861727e+02  1.0041598660931099e+02  1.0038898212670686e+02  1.0049679744093888e+02  1.0048973453072384e+02  1.0058096125334555e+02  1.0057540908377571e+02  1.0065394073867135e+02  1.0069953321445539e+02  1.0075103003661184e+02  1.0069363540515617e+02  1.0073634473931344e+02  1.0035063706389134e+02  1.0030599907067185e+02  1.0043337287238479e+02  1.0040387646548015e+02  1.0051835988530185e+02  1.0051066980225029e+02  1.0060730671797606e+02  1.0060221594222064e+02  1.0068501824282131e+02  1.0073265922769885e+02  1.0078739758838938e+02  1.0072804737442894e+02  1.0077335585362309e+02  1.0053949947503465e+02  1.0063307744430114e+02  1.0062886941302904e+02  1.0071523903163903e+02  1.0076472541029430e+02  1.0082227044625333e+02  1.0076165065649273e+02  1.0080907231898792e+02  1.0085520949860206e+02  1.0084299299200941e+02  9.9740839004474140e+01  9.9656222701347630e+01  9.9640887047882188e+01  9.9725795372351001e+01  9.9761846518680954e+01  9.9677646932542871e+01  9.9788771840590485e+01  9.9705122238684382e+01  9.9821544540511397e+01  9.9738589964177365e+01  9.9860061249954754e+01  9.9777962430133442e+01  9.9904174249141079e+01  9.9823112441778733e+01  9.9953676905460355e+01  9.9873860465136801e+01  1.0000828382801342e+02  9.9929955896363140e+01  1.0006760864589759e+02  9.9991061607047982e+01  1.0013112208220073e+02  1.0005670444642480e+02  1.0019814159536784e+02  1.0012631553876774e+02  1.0026765647581007e+02  1.0019892219528123e+02  1.0033865230170336e+02  1.0027397601181929e+02  1.0040860287243677e+02  1.0034832474972971e+02  1.0047808940531861e+02  1.0042561491056556e+02  1.0053472520656162e+02  1.0048682421328853e+02  1.0060540320846235e+02  1.0057429685056209e+02  1.0059453153690343e+02  1.0056956345639487e+02  9.9805083459531957e+01  9.9825689688566044e+01  9.9852090890954756e+01  9.9884209701688619e+01  9.9921933596133186e+01  9.9965102965984286e+01  1.0001349599504030e+02  1.0006680766767153e+02  1.0012462765130547e+02  1.0018639336646881e+02  1.0025139318256542e+02  1.0031854422258854e+02  1.0038689743165453e+02  1.0045358369911126e+02  1.0052049151539619e+02  1.0057217478684257e+02  1.0064945214625166e+02  1.0062454223090647e+02  9.9900468740257807e+01  9.9932019018713504e+01  9.9969068783873283e+01  1.0001145756674335e+02  1.0005896315482596e+02  1.0011128137753096e+02  1.0016800535972402e+02  1.0022858184996618e+02  1.0029231975056781e+02  1.0035818091778026e+02  1.0042531491297156e+02  1.0049101134057466e+02  1.0055776254702816e+02  1.0060984551869220e+02  1.0069420654691615e+02  1.0066395176662726e+02  1.0000513909835666e+02  1.0004696239553073e+02  1.0009386390737131e+02  1.0014556042973211e+02  1.0020167531801476e+02  1.0026169918341425e+02  1.0032500894391083e+02  1.0039066291473480e+02  1.0045798955172022e+02  1.0052444438888362e+02  1.0059316615220773e+02  1.0064782877005966e+02  1.0073983208989277e+02  1.0070704990136002e+02  1.0007421850035641e+02  1.0012082914595314e+02  1.0017230239771857e+02  1.0022831178350313e+02  1.0028841516978797e+02  1.0035208142108478e+02  1.0041848826491858e+02  1.0048713919606290e+02  1.0055563836400484e+02  1.0062755533638493e+02  1.0068590578223102e+02  1.0078514129744944e+02  1.0075086428896303e+02  1.0024976423178448e+02  1.0031051475996908e+02  1.0037520515322633e+02  1.0044312598610752e+02  1.0051392276875225e+02  1.0058528353647009e+02  1.0066103137989005e+02  1.0072347833566734e+02  1.0082924032300022e+02  1.0079413315257396e+02  1.0046541565673176e+02  1.0053889074432826e+02  1.0061356638555395e+02  1.0069338274177194e+02  1.0075996232974306e+02  1.0087150535394838e+02  1.0083601623269958e+02  1.0064044076632861e+02  1.0072431377926085e+02  1.0079486865526178e+02  1.0091147940084738e+02  1.0087594042467204e+02  1.0094882849965842e+02  1.0091349697765671e+02  9.9763128585374062e+01  9.9649111305770418e+01  9.9633719421674044e+01  9.9748181177990048e+01  9.9784005919158119e+01  9.9670623439153943e+01  9.9810771184908589e+01  9.9698227192697175e+01  9.9843359575077315e+01  9.9731876072249889e+01  9.9881675240622855e+01  9.9771498530165871e+01  9.9925580420367865e+01  9.9816988469566979e+01  9.9974881686036667e+01  9.9868193871132974e+01  1.0002931141509850e+02  9.9924900218207398e+01  1.0008850745852838e+02  9.9986818279385517e+01  1.0015197495466349e+02  1.0005353939048308e+02  1.0021908033805722e+02  1.0012458447768725e+02  1.0028888873193111e+02  1.0019910193620656e+02  1.0036050050586898e+02  1.0027674236828052e+02  1.0043155761935580e+02  1.0035452099308996e+02  1.0050304477943935e+02  1.0043679941527550e+02  1.0056230905639727e+02  1.0050346781952598e+02  1.0063980343578373e+02  1.0060194832849733e+02  1.0062584399480980e+02  1.0059521653493010e+02  9.9854285375763510e+01  9.9874531440769232e+01  9.9900468740257523e+01  9.9932019018713419e+01  9.9969068783872515e+01  1.0001145756674423e+02  1.0005896315482680e+02  1.0011128137753063e+02  1.0016800535972310e+02  1.0022858184996650e+02  1.0029231975056875e+02  1.0035818091778000e+02  1.0042531491297142e+02  1.0049101134057473e+02  1.0055776254702796e+02  1.0060984551869225e+02  1.0069420654691636e+02  1.0066395176662739e+02  9.9946882635060348e+01  9.9972048661028708e+01  1.0000264296096921e+02  1.0003854352826040e+02  1.0007957965621186e+02  1.0012551736323601e+02  1.0017603989907867e+02  1.0023072858964744e+02  1.0028902345363491e+02  1.0035023947186001e+02  1.0041337743375828e+02  1.0047770014237386e+02  1.0054072751080137e+02  1.0060573491333331e+02  1.0065707256227479e+02  1.0074908818964148e+02  1.0071328516020871e+02  1.0005895918167876e+02  1.0009388510618284e+02  9.9968601288372312e+01  1.0013380230653954e+02  1.0017848325339985e+02  1.0022762294445663e+02  1.0028082385116231e+02  1.0033756276583806e+02  1.0039722136500605e+02  1.0045890865411324e+02  1.0052210584924234e+02  1.0058458667867890e+02  1.0065047629195071e+02  1.0070375953009314e+02  1.0080428820556220e+02  1.0076613727277976e+02  1.0013800603173246e+02  1.0017708043031932e+02  1.0022086085581401e+02  1.0026907469770606e+02  1.0032137107712204e+02  1.0037729434801831e+02  1.0043632613941257e+02  1.0049771742982124e+02  1.0056117283856079e+02  1.0062470451211723e+02  1.0069304074487148e+02  1.0074968635978003e+02  1.0085833576550510e+02  1.0081885676670649e+02  1.0025493743345912e+02  1.0030268042818163e+02  1.0035463196746096e+02  1.0041041919109125e+02  1.0046963410374630e+02  1.0053166737316076e+02  1.0059641419682833e+02  1.0066204965586638e+02  1.0073369601970063e+02  1.0079427448015616e+02  1.0091026804738463e+02  1.0087007985279418e+02  1.0043848507827825e+02  1.0049853157340297e+02  1.0056190721736422e+02  1.0062864760851541e+02  1.0069701435339385e+02  1.0077235805903679e+02  1.0083699073551664e+02  1.0095948978298568e+02  1.0091898795430581e+02  1.0065829061159356e+02  1.0072970470448860e+02  1.0080883321938829e+02  1.0087740759449672e+02  1.0100560395757869e+02  1.0096508386560498e+02  1.0091519707582535e+02  1.0104834597512141e+02  1.0100804329442309e+02  9.9778082434201508e+01  9.9639836419322293e+01  9.9624352423056209e+01  9.9763192286680166e+01  9.9798888188141206e+01  9.9661490328978033e+01  9.9825575822682055e+01  9.9689298117757943e+01  9.9858091881335980e+01  9.9723230493865827e+01  9.9896355606106908e+01  9.9763238617172121e+01  9.9940249017528345e+01  9.9809245873336181e+01  9.9989604547645499e+01  9.9861138311735829e+01  1.0004418848301576e+02  9.9918750539329409e+01  1.0010368367652266e+02  9.9981857271143312e+01  1.0016765514763983e+02  1.0005013266621548e+02  1.0023555186730444e+02  1.0012320911584271e+02  1.0030654597420400e+02  1.0020037094296744e+02  1.0037990198377557e+02  1.0028148010425275e+02  1.0045340228932984e+02  1.0036367428883467e+02  1.0052844375256744e+02  1.0045186887465513e+02  1.0059180374485081e+02  1.0052483198013816e+02  1.0067633070496071e+02  1.0063308186259177e+02  1.0066143038817059e+02  1.0062588092867846e+02  9.9891988363580850e+01  9.9911936820110824e+01  9.9937498649153284e+01  9.9968601288372014e+01  1.0000513909835647e+02  1.0004696239553122e+02  1.0009386390737247e+02  1.0014556042973237e+02  1.0020167531801381e+02  1.0026169918341381e+02  1.0032500894391195e+02  1.0039066291473475e+02  1.0045798955172008e+02  1.0052444438888352e+02  1.0059316615220739e+02  1.0064782877005962e+02  1.0073983208989296e+02  1.0070704990136028e+02  1.0000470342906002e+02  1.0002919184578448e+02  1.0005895918167906e+02  1.0009388510618444e+02  1.0013380230653979e+02  1.0017848325339911e+02  1.0022762294445707e+02  1.0028082385116166e+02  1.0033756276583836e+02  1.0039722136500669e+02  1.0045890865411299e+02  1.0052210584924210e+02  1.0058458667867914e+02  1.0065047629195051e+02  1.0070375953009284e+02  1.0080428820556227e+02  1.0076613727278000e+02  1.0002919184578488e+02  1.0010417407006412e+02  1.0008066062542865e+02  1.0013274279396200e+02  1.0016624340144132e+02  1.0020450663150763e+02  1.0024730583789372e+02  1.0029434269541919e+02  1.0034523761895549e+02  1.0039950529355360e+02  1.0045660409430606e+02  1.0051577721735686e+02  1.0057678136589033e+02  1.0063774186692665e+02  1.0070384033670152e+02  1.0075886017440091e+02  1.0086900942917644e+02  1.0082907662774693e+02  1.0019291944791260e+02  1.0016537131752668e+02  1.0022523011305208e+02  1.0026214700515946e+02  1.0030346357576606e+02  1.0034891267231556e+02  1.0039816318514713e+02  1.0045080482595239e+02  1.0050641331203606e+02  1.0056440739094457e+02  1.0062482808087510e+02  1.0068613388529738e+02  1.0075428063402950e+02  1.0081269547368217e+02  1.0093206133438247e+02  1.0089136322125923e+02  1.0030920863691441e+02  1.0034946031838001e+02  1.0039384325183990e+02  1.0044209428342072e+02  1.0049389740995608e+02  1.0054895980278539e+02  1.0060687529160877e+02  1.0066793307614634e+02  1.0073083653329120e+02  1.0080207246702805e+02  1.0086456666777218e+02  1.0099228116645634e+02  1.0095137386945774e+02  1.0047891486921004e+02  1.0053055732363384e+02  1.0058584336239585e+02  1.0064451883180487e+02  1.0070706396798664e+02  1.0077233623147112e+02  1.0084715783769008e+02  1.0091389936444897e+02  1.0104901115826769e+02  1.0100820868852183e+02  1.0067818540574470e+02  1.0074276068286603e+02  1.0081081937984416e+02  1.0088937957144864e+02  1.0096026733006158e+02  1.0110185463765055e+02  1.0106138003056670e+02  1.0092857119263425e+02  1.0100336586685337e+02  1.0115057819967907e+02  1.0111060873407790e+02  9.9624198140328545e+01  9.9614971057324894e+01  9.9603731498258583e+01  9.9763529643661599e+01  9.9613038078214842e+01  9.9772398737166199e+01  9.9611919076928018e+01  9.9751226997024929e+01  9.9760595435845730e+01  9.9600652212657124e+01  9.9615045871256314e+01  9.9754237357117503e+01  9.9763600532126702e+01  9.9603801817285870e+01  9.9772545230841459e+01  9.9613183428380339e+01  9.9787425073591976e+01  9.9628801164482937e+01  9.9808228821596771e+01  9.9650658490213914e+01  9.9834934984736805e+01  9.9678755395388819e+01  9.9867506786301178e+01  9.9713084338281490e+01  9.9905885422316160e+01  9.9753624939340995e+01  9.9949981292868571e+01  9.9800337096214861e+01  9.9999663206964200e+01  9.9853153219482110e+01  1.0005474391902963e+02  9.9911966425448128e+01  1.0011496562343045e+02  9.9976625130278634e+01  1.0017996875273838e+02  1.0004689523699324e+02  1.0024929819074694e+02  1.0012252416750107e+02  1.0032224180759921e+02  1.0020292738193267e+02  1.0039821076037030e+02  1.0028813913672846e+02  1.0047509246875480e+02  1.0037536656288285e+02  1.0055451649019018e+02  1.0046984216306534e+02  1.0062262049281784e+02  1.0054926222314273e+02  1.0071375054770080e+02  1.0066603235122386e+02  1.0069872070905288e+02  1.0065921341745890e+02  9.9898058461762005e+01  9.9895202309848543e+01  9.9906554343666059e+01  9.9920678387078851e+01  9.9877701112704742e+01  9.9940407186287089e+01  9.9965701599215990e+01  9.9996501087376387e+01  1.0003271615160020e+02  1.0007421850035720e+02  1.0012082914595261e+02  1.0017230239771980e+02  1.0022831178350106e+02  1.0028841516978721e+02  1.0035208142108534e+02  1.0041848826491893e+02  1.0048713919606259e+02  1.0055563836400515e+02  1.0062755533638480e+02  1.0068590578223107e+02  1.0078514129744958e+02  1.0075086428896337e+02  1.0003212572503226e+02  1.0005080977897701e+02  9.9985578238721828e+01  1.0007474072040679e+02  1.0010384241018188e+02  1.0013800603173409e+02  1.0017708043031949e+02  1.0022086085581272e+02  1.0026907469770623e+02  1.0032137107712165e+02  1.0037729434801771e+02  1.0043632613941287e+02  1.0049771742982144e+02  1.0056117283856049e+02  1.0062470451211750e+02  1.0069304074487098e+02  1.0074968635977999e+02  1.0085833576550537e+02  1.0081885676670677e+02  1.0014270078156737e+02  1.0012499003704707e+02  1.0016537131752582e+02  1.0019291944791166e+02  1.0022523011305282e+02  1.0026214700516049e+02  1.0030346357576489e+02  1.0034891267231581e+02  1.0039816318514745e+02  1.0045080482595206e+02  1.0050641331203637e+02  1.0056440739094460e+02  1.0062482808087495e+02  1.0068613388529752e+02  1.0075428063402921e+02  1.0081269547368220e+02  1.0093206133438265e+02  1.0089136322125931e+02  1.0024049514424907e+02  1.0026668402431939e+02  1.0029739956931525e+02  1.0033249723555556e+02  1.0037179054727112e+02  1.0041504573855308e+02  1.0046198630693436e+02  1.0051228960760000e+02  1.0056567164834249e+02  1.0062176528411759e+02  1.0068095783849577e+02  1.0074213026639660e+02  1.0081215365898548e+02  1.0087419274393322e+02  1.0100386662388109e+02  1.0096303009144610e+02  1.0032765548391313e+02  1.0035706579844782e+02  1.0039071425907613e+02  1.0042845170162740e+02  1.0047009800147330e+02  1.0051545371478225e+02  1.0056430607688611e+02  1.0061652775078497e+02  1.0067196532769049e+02  1.0073131163995630e+02  1.0079376905859024e+02  1.0086685221275928e+02  1.0093328719965906e+02  1.0107232423647454e+02  1.0103188843230262e+02  1.0047557164250732e+02  1.0051616166177234e+02  1.0056059223770188e+02  1.0060876595044185e+02  1.0066070629614583e+02  1.0071644774270386e+02  1.0077692404369427e+02  1.0084155456846374e+02  1.0091827697446108e+02  1.0098930342356334e+02  1.0113665047806532e+02  1.0109687123127333e+02  1.0069941649255136e+02  1.0075615338620010e+02  1.0081839793570920e+02  1.0088569906686701e+02  1.0096625823043851e+02  1.0104177071167574e+02  1.0119639882836891e+02  1.0115743440515536e+02  1.0092627748495195e+02  1.0101063532030017e+02  1.0109037403413926e+02  1.0125132975027981e+02  1.0121329699557121e+02  9.9768446422695760e+01  9.9591088324116114e+01  9.9600500070743763e+01  9.9777338907089629e+01  9.9765503783248192e+01  9.9587973308972622e+01  9.9768513395092270e+01  9.9591154159930767e+01  9.9777477664093738e+01  9.9600636533848515e+01  9.9792398440505153e+01  9.9616432183059757e+01  9.9813275238312926e+01  9.9638557571731667e+01  9.9840102182454316e+01  9.9667031521981841e+01  9.9872863589246137e+01  9.9701871839028726e+01  9.9911528068757136e+01  9.9743090927617146e+01  9.9956040857297168e+01  9.9790690090329690e+01  1.0000631440582457e+02  9.9844653218184206e+01  1.0006221554009996e+02  9.9904936603376058e+01  1.0012355274620114e+02  9.9971465274731955e+01  1.0019004620800108e+02  1.0004409577961212e+02  1.0026133483821958e+02  1.0012268113205397e+02  1.0033680819521192e+02  1.0020674500702570e+02  1.004159866093106