<?xml version="1.0"?>
<VTKFile type="UnstructuredGrid"  version="0.1"  >
<UnstructuredGrid>
<Piece  NumberOfPoints="17996" NumberOfCells="95562">
<Points>
<DataArray  type="Float64"  NumberOfComponents="3"  format="ascii">0.15 0 0  0.175 0 0  0.175 0.025 0  0.175 0.025 0.025  0.175 0 0.025  0.2 0 0  0.2 0.025 0  0.2 0.025 0.025  0.2 0 0.025  0.225 0 0  0.225 0.025 0  0.225 0.025 0.025  0.225 0 0.025  0.25 0 0  0.25 0.025 0  0.25 0.025 0.025  0.25 0 0.025  0.275 0 0  0.275 0.025 0  0.275 0.025 0.025  0.275 0 0.025  0.3 0 0  0.3 0.025 0  0.3 0.025 0.025  0.3 0 0.025  0.325 0 0  0.325 0.025 0  0.325 0.025 0.025  0.325 0 0.025  0.35 0 0  0.35 0.025 0  0.35 0.025 0.025  0.35 0 0.025  0.375 0 0  0.375 0.025 0  0.375 0.025 0.025  0.375 0 0.025  0.4 0 0  0.4 0.025 0  0.4 0.025 0.025  0.4 0 0.025  0.425 0 0  0.425 0.025 0  0.425 0.025 0.025  0.425 0 0.025  0.45 0 0  0.45 0.025 0  0.45 0.025 0.025  0.45 0 0.025  0.475 0 0  0.475 0.025 0  0.475 0.025 0.025  0.475 0 0.025  0.5 0 0  0.5 0.025 0  0.5 0.025 0.025  0.5 0 0.025  0.525 0 0  0.525 0.025 0  0.525 0.025 0.025  0.525 0 0.025  0.55 0 0.025  0.55 0.025 0.025  0.55 0.025 0  0.2 0.05 0  0.2 0.05 0.025  0.175 0.05 0  0.175 0.05 0.025  0.225 0.05 0  0.225 0.05 0.025  0.25 0.05 0  0.25 0.05 0.025  0.275 0.05 0  0.275 0.05 0.025  0.3 0.05 0  0.3 0.05 0.025  0.325 0.05 0  0.325 0.05 0.025  0.35 0.05 0  0.35 0.05 0.025  0.375 0.05 0  0.375 0.05 0.025  0.4 0.05 0  0.4 0.05 0.025  0.425 0.05 0  0.425 0.05 0.025  0.45 0.05 0  0.45 0.05 0.025  0.475 0.05 0  0.475 0.05 0.025  0.5 0.05 0  0.5 0.05 0.025  0.525 0.05 0  0.525 0.05 0.025  0.55 0.05 0  0.55 0.05 0.025  0.575 0.025 0  0.575 0.05 0  0.575 0.05 0.025  0.575 0.025 0.025  0.6 0.05 0  0.6 0.05 0.025  0.2 0.075 0  0.2 0.075 0.025  0.175 0.075 0  0.225 0.075 0  0.225 0.075 0.025  0.25 0.075 0  0.25 0.075 0.025  0.275 0.075 0  0.275 0.075 0.025  0.3 0.075 0  0.3 0.075 0.025  0.325 0.075 0  0.325 0.075 0.025  0.35 0.075 0  0.35 0.075 0.025  0.375 0.075 0  0.375 0.075 0.025  0.4 0.075 0  0.4 0.075 0.025  0.425 0.075 0  0.425 0.075 0.025  0.45 0.075 0  0.45 0.075 0.025  0.475 0.075 0  0.475 0.075 0.025  0.5 0.075 0  0.5 0.075 0.025  0.525 0.075 0  0.525 0.075 0.025  0.55 0.075 0  0.55 0.075 0.025  0.575 0.075 0  0.575 0.075 0.025  0.6 0.075 0  0.6 0.075 0.025  0.625 0.05 0  0.625 0.075 0  0.625 0.075 0.025  0.625 0.05 0.025  0.65 0.075 0  0.65 0.075 0.025  0.2 0.1 0  0.2 0.1 0.025  0.225 0.1 0  0.225 0.1 0.025  0.25 0.1 0  0.25 0.1 0.025  0.275 0.1 0  0.275 0.1 0.025  0.3 0.1 0  0.3 0.1 0.025  0.325 0.1 0  0.325 0.1 0.025  0.35 0.1 0  0.35 0.1 0.025  0.375 0.1 0  0.375 0.1 0.025  0.4 0.1 0  0.4 0.1 0.025  0.425 0.1 0  0.425 0.1 0.025  0.45 0.1 0  0.45 0.1 0.025  0.475 0.1 0  0.475 0.1 0.025  0.5 0.1 0  0.5 0.1 0.025  0.525 0.1 0  0.525 0.1 0.025  0.55 0.1 0  0.55 0.1 0.025  0.575 0.1 0  0.575 0.1 0.025  0.6 0.1 0  0.6 0.1 0.025  0.625 0.1 0  0.625 0.1 0.025  0.65 0.1 0  0.65 0.1 0.025  0.675 0.075 0  0.675 0.1 0  0.675 0.1 0.025  0.7 0.1 0  0.7 0.1 0.025  0.225 0.125 0  0.225 0.125 0.025  0.2 0.125 0  0.2 0.125 0.025  0.25 0.125 0  0.25 0.125 0.025  0.275 0.125 0  0.275 0.125 0.025  0.3 0.125 0  0.3 0.125 0.025  0.325 0.125 0  0.325 0.125 0.025  0.35 0.125 0  0.35 0.125 0.025  0.375 0.125 0  0.375 0.125 0.025  0.4 0.125 0  0.4 0.125 0.025  0.425 0.125 0  0.425 0.125 0.025  0.45 0.125 0  0.45 0.125 0.025  0.475 0.125 0  0.475 0.125 0.025  0.5 0.125 0  0.5 0.125 0.025  0.525 0.125 0  0.525 0.125 0.025  0.55 0.125 0  0.55 0.125 0.025  0.575 0.125 0  0.575 0.125 0.025  0.6 0.125 0  0.6 0.125 0.025  0.625 0.125 0  0.625 0.125 0.025  0.65 0.125 0  0.65 0.125 0.025  0.675 0.125 0  0.675 0.125 0.025  0.7 0.125 0  0.7 0.125 0.025  0.725 0.1 0  0.725 0.125 0  0.725 0.125 0.025  0.75 0.125 0  0.75 0.125 0.025  0.225 0.15 0  0.225 0.15 0.025  0.25 0.15 0  0.25 0.15 0.025  0.275 0.15 0  0.275 0.15 0.025  0.3 0.15 0  0.3 0.15 0.025  0.325 0.15 0  0.325 0.15 0.025  0.35 0.15 0  0.35 0.15 0.025  0.375 0.15 0  0.375 0.15 0.025  0.4 0.15 0  0.4 0.15 0.025  0.425 0.15 0  0.425 0.15 0.025  0.45 0.15 0  0.45 0.15 0.025  0.475 0.15 0  0.475 0.15 0.025  0.5 0.15 0  0.5 0.15 0.025  0.525 0.15 0  0.525 0.15 0.025  0.55 0.15 0  0.55 0.15 0.025  0.575 0.15 0  0.575 0.15 0.025  0.6 0.15 0  0.6 0.15 0.025  0.625 0.15 0  0.625 0.15 0.025  0.65 0.15 0  0.65 0.15 0.025  0.675 0.15 0  0.675 0.15 0.025  0.7 0.15 0  0.7 0.15 0.025  0.725 0.15 0  0.725 0.15 0.025  0.75 0.15 0  0.75 0.15 0.025  0.775 0.125 0  0.775 0.15 0  0.775 0.15 0.025  0.775 0.125 0.025  0.8 0.125 0  0.8 0.15 0  0.8 0.15 0.025  0.825 0.15 0  0.825 0.15 0.025  0.25 0.175 0  0.25 0.175 0.025  0.225 0.175 0  0.275 0.175 0  0.275 0.175 0.025  0.3 0.175 0  0.3 0.175 0.025  0.325 0.175 0  0.325 0.175 0.025  0.35 0.175 0  0.35 0.175 0.025  0.375 0.175 0  0.375 0.175 0.025  0.4 0.175 0  0.4 0.175 0.025  0.425 0.175 0  0.425 0.175 0.025  0.45 0.175 0  0.45 0.175 0.025  0.475 0.175 0  0.475 0.175 0.025  0.5 0.175 0  0.5 0.175 0.025  0.525 0.175 0  0.525 0.175 0.025  0.55 0.175 0  0.55 0.175 0.025  0.575 0.175 0  0.575 0.175 0.025  0.6 0.175 0  0.6 0.175 0.025  0.625 0.175 0  0.625 0.175 0.025  0.65 0.175 0  0.65 0.175 0.025  0.675 0.175 0  0.675 0.175 0.025  0.7 0.175 0  0.7 0.175 0.025  0.725 0.175 0  0.725 0.175 0.025  0.75 0.175 0  0.75 0.175 0.025  0.775 0.175 0  0.775 0.175 0.025  0.8 0.175 0  0.8 0.175 0.025  0.825 0.175 0  0.825 0.175 0.025  0.85 0.15 0  0.85 0.175 0  0.85 0.175 0.025  0.875 0.175 0  0.875 0.175 0.025  0.25 0.2 0  0.25 0.2 0.025  0.275 0.2 0  0.275 0.2 0.025  0.3 0.2 0  0.3 0.2 0.025  0.325 0.2 0  0.325 0.2 0.025  0.35 0.2 0  0.35 0.2 0.025  0.375 0.2 0  0.375 0.2 0.025  0.4 0.2 0  0.4 0.2 0.025  0.425 0.2 0  0.425 0.2 0.025  0.45 0.2 0  0.45 0.2 0.025  0.475 0.2 0  0.475 0.2 0.025  0.5 0.2 0  0.5 0.2 0.025  0.525 0.2 0  0.525 0.2 0.025  0.55 0.2 0  0.55 0.2 0.025  0.575 0.2 0  0.575 0.2 0.025  0.6 0.2 0  0.6 0.2 0.025  0.625 0.2 0  0.625 0.2 0.025  0.65 0.2 0  0.65 0.2 0.025  0.675 0.2 0  0.675 0.2 0.025  0.7 0.2 0  0.7 0.2 0.025  0.725 0.2 0  0.725 0.2 0.025  0.75 0.2 0  0.75 0.2 0.025  0.775 0.2 0  0.775 0.2 0.025  0.8 0.2 0  0.8 0.2 0.025  0.825 0.2 0  0.825 0.2 0.025  0.85 0.2 0  0.85 0.2 0.025  0.875 0.2 0  0.875 0.2 0.025  0.9 0.175 0  0.9 0.2 0  0.9 0.2 0.025  0.925 0.175 0  0.925 0.2 0  0.925 0.2 0.025  0.95 0.2 0  0.95 0.2 0.025  0.275 0.225 0  0.275 0.225 0.025  0.25 0.225 0  0.25 0.225 0.025  0.3 0.225 0  0.3 0.225 0.025  0.325 0.225 0  0.325 0.225 0.025  0.35 0.225 0  0.35 0.225 0.025  0.375 0.225 0  0.375 0.225 0.025  0.4 0.225 0  0.4 0.225 0.025  0.425 0.225 0  0.425 0.225 0.025  0.45 0.225 0  0.45 0.225 0.025  0.475 0.225 0  0.475 0.225 0.025  0.5 0.225 0  0.5 0.225 0.025  0.525 0.225 0  0.525 0.225 0.025  0.55 0.225 0  0.55 0.225 0.025  0.575 0.225 0  0.575 0.225 0.025  0.6 0.225 0  0.6 0.225 0.025  0.625 0.225 0  0.625 0.225 0.025  0.65 0.225 0  0.65 0.225 0.025  0.675 0.225 0  0.675 0.225 0.025  0.7 0.225 0  0.7 0.225 0.025  0.725 0.225 0  0.725 0.225 0.025  0.75 0.225 0  0.75 0.225 0.025  0.775 0.225 0  0.775 0.225 0.025  0.8 0.225 0  0.8 0.225 0.025  0.825 0.225 0  0.825 0.225 0.025  0.85 0.225 0  0.85 0.225 0.025  0.875 0.225 0  0.875 0.225 0.025  0.9 0.225 0  0.9 0.225 0.025  0.925 0.225 0  0.925 0.225 0.025  0.95 0.225 0  0.95 0.225 0.025  0.975 0.2 0  0.975 0.225 0  0.975 0.225 0.025  1 0.2 0  1 0.225 0  1 0.225 0.025  0.275 0.25 0  0.275 0.25 0.025  0.25 0.25 0  0.3 0.25 0  0.3 0.25 0.025  0.325 0.25 0  0.325 0.25 0.025  0.35 0.25 0  0.35 0.25 0.025  0.375 0.25 0  0.375 0.25 0.025  0.4 0.25 0  0.4 0.25 0.025  0.425 0.25 0  0.425 0.25 0.025  0.45 0.25 0  0.45 0.25 0.025  0.475 0.25 0  0.475 0.25 0.025  0.5 0.25 0  0.5 0.25 0.025  0.525 0.25 0  0.525 0.25 0.025  0.55 0.25 0  0.55 0.25 0.025  0.575 0.25 0  0.575 0.25 0.025  0.6 0.25 0  0.6 0.25 0.025  0.625 0.25 0  0.625 0.25 0.025  0.65 0.25 0  0.65 0.25 0.025  0.675 0.25 0  0.675 0.25 0.025  0.7 0.25 0  0.7 0.25 0.025  0.725 0.25 0  0.725 0.25 0.025  0.75 0.25 0  0.75 0.25 0.025  0.775 0.25 0  0.775 0.25 0.025  0.8 0.25 0  0.8 0.25 0.025  0.825 0.25 0  0.825 0.25 0.025  0.85 0.25 0  0.85 0.25 0.025  0.875 0.25 0  0.875 0.25 0.025  0.9 0.25 0  0.9 0.25 0.025  0.925 0.25 0  0.925 0.25 0.025  0.95 0.25 0  0.95 0.25 0.025  0.975 0.25 0  0.975 0.25 0.025  1 0.25 0  1 0.25 0.025  0.275 0.275 0  0.275 0.275 0.025  0.3 0.275 0  0.3 0.275 0.025  0.325 0.275 0  0.325 0.275 0.025  0.35 0.275 0  0.35 0.275 0.025  0.375 0.275 0  0.375 0.275 0.025  0.4 0.275 0  0.4 0.275 0.025  0.425 0.275 0  0.425 0.275 0.025  0.45 0.275 0  0.45 0.275 0.025  0.475 0.275 0  0.475 0.275 0.025  0.5 0.275 0  0.5 0.275 0.025  0.525 0.275 0  0.525 0.275 0.025  0.55 0.275 0  0.55 0.275 0.025  0.575 0.275 0  0.575 0.275 0.025  0.6 0.275 0  0.6 0.275 0.025  0.625 0.275 0  0.625 0.275 0.025  0.65 0.275 0  0.65 0.275 0.025  0.675 0.275 0  0.675 0.275 0.025  0.7 0.275 0  0.7 0.275 0.025  0.725 0.275 0  0.725 0.275 0.025  0.75 0.275 0  0.75 0.275 0.025  0.775 0.275 0  0.775 0.275 0.025  0.8 0.275 0  0.8 0.275 0.025  0.825 0.275 0  0.825 0.275 0.025  0.85 0.275 0  0.85 0.275 0.025  0.875 0.275 0  0.875 0.275 0.025  0.9 0.275 0  0.9 0.275 0.025  0.925 0.275 0  0.925 0.275 0.025  0.95 0.275 0  0.95 0.275 0.025  0.975 0.275 0  0.975 0.275 0.025  1 0.275 0  1 0.275 0.025  0.3 0.3 0  0.3 0.3 0.025  0.275 0.3 0  0.275 0.3 0.025  0.325 0.3 0  0.325 0.3 0.025  0.35 0.3 0  0.35 0.3 0.025  0.375 0.3 0  0.375 0.3 0.025  0.4 0.3 0  0.4 0.3 0.025  0.425 0.3 0  0.425 0.3 0.025  0.45 0.3 0  0.45 0.3 0.025  0.475 0.3 0  0.475 0.3 0.025  0.5 0.3 0  0.5 0.3 0.025  0.525 0.3 0  0.525 0.3 0.025  0.55 0.3 0  0.55 0.3 0.025  0.575 0.3 0  0.575 0.3 0.025  0.6 0.3 0  0.6 0.3 0.025  0.625 0.3 0  0.625 0.3 0.025  0.65 0.3 0  0.65 0.3 0.025  0.675 0.3 0  0.675 0.3 0.025  0.7 0.3 0  0.7 0.3 0.025  0.725 0.3 0  0.725 0.3 0.025  0.75 0.3 0  0.75 0.3 0.025  0.775 0.3 0  0.775 0.3 0.025  0.8 0.3 0  0.8 0.3 0.025  0.825 0.3 0  0.825 0.3 0.025  0.85 0.3 0  0.85 0.3 0.025  0.875 0.3 0  0.875 0.3 0.025  0.9 0.3 0  0.9 0.3 0.025  0.925 0.3 0  0.925 0.3 0.025  0.95 0.3 0  0.95 0.3 0.02
[...]
<PointData  Scalars="f_175"> 
<DataArray  type="Float64"  Name="f_175"  format="ascii">1.0019587347256952e+02  1.0012544586928473e+02  1.0012470693589604e+02  1.0016660033296186e+02  1.0012470693589680e+02  1.0005759236263791e+02  1.0005654117447821e+02  1.0009956990741567e+02  1.0005654117447993e+02  9.9993272930600256e+01  9.9991989816167290e+01  1.0003596703103533e+02  9.9991989816165329e+01  9.9933200503595387e+01  9.9931744661154639e+01  9.9976519979837704e+01  9.9931744661155207e+01  9.9877905071755876e+01  9.9876320819369283e+01  9.9921769840887734e+01  9.9876320819371628e+01  9.9827779314519788e+01  9.9826100111898626e+01  9.9872117429065739e+01  9.9826100111897560e+01  9.9783112175523570e+01  9.9781363357244672e+01  9.9827857717682022e+01  9.9781363357242441e+01  9.9744114141513776e+01  9.9742314861240843e+01  9.9789205695025629e+01  9.9742314861240757e+01  9.9710936558993993e+01  9.9709101230589127e+01  9.9756316076662031e+01  9.9709101230588061e+01  9.9683686495609720e+01  9.9681825902883688e+01  9.9729298440472519e+01  9.9681825902884754e+01  9.9662438148184805e+01  9.9660560331786741e+01  9.9708228825353899e+01  9.9660560331787195e+01  9.9647241477550040e+01  9.9645352470496150e+01  9.9693158498168074e+01  9.9645352470494402e+01  9.9638128534492751e+01  9.9636232996057629e+01  9.9684120369512300e+01  9.9636232996057416e+01  9.9635117791045602e+01  9.9633219575377140e+01  9.9681133382347980e+01  9.9633219575377325e+01  9.9638216679633729e+01  9.9636319367634528e+01  9.9684205082280272e+01  9.9636319367634584e+01  9.9645529873423214e+01  9.9693332487221085e+01  9.9645529873423939e+01  1.0005417186033112e+02  1.0012861724737647e+02  1.0012318040468453e+02  1.0019505549422179e+02  9.9988992416102008e+01  1.0006556621187195e+02  9.9928277843600284e+01  1.0000662639674628e+02  9.9872503562939059e+01  9.9952336906605950e+01  9.9822022404317920e+01  9.9903097591327608e+01  9.9777093515116647e+01  9.9859202911623413e+01  9.9737904747759032e+01  9.9820867547015538e+01  9.9704590120361487e+01  9.9788245998815512e+01  9.9677243451616079e+01  9.9761447679371543e+01  9.9655928942557992e+01  9.9740548493995874e+01  9.9640689250173267e+01  9.9725599603816249e+01  9.9631551436666669e+01  9.9716633842450761e+01  9.9628531059190877e+01  9.9713670106942786e+01  9.9631634573656299e+01  9.9716715930081222e+01  9.9640860151791884e+01  9.9725768351169236e+01  9.9660838168641320e+01  9.9656196945890613e+01  9.9740813125172608e+01  9.9708501296372177e+01  9.9677622772369531e+01  9.9761822236461171e+01  1.0005104701686629e+02  1.0014949169646960e+02  1.0012148750274004e+02  9.9984788308239956e+01  1.0008649041105711e+02  9.9923259170396136e+01  1.0002768036070488e+02  9.9866870975519205e+01  9.9973567471882035e+01  9.9815928999664962e+01  9.9924527902597234e+01  9.9770656495704330e+01  9.9880838745156368e+01  9.9731213910819406e+01  9.9842701700345330e+01  9.9697714231011673e+01  9.9810261461518238e+01  9.9670235180699279e+01  9.9783620016811312e+01  9.9648828820258686e+01  9.9762847713057653e+01  9.9633528943586654e+01  9.9747991674646826e+01  9.9624356570082199e+01  9.9739081993638351e+01  9.9621323740305627e+01  9.9736135978078693e+01  9.9624435755408626e+01  9.9739160645999064e+01  9.9633691941778011e+01  9.9748153572180186e+01  9.9649084969826617e+01  9.9763102124645144e+01  9.9670598703878582e+01  9.9783981060681896e+01  9.9705100127153656e+01  9.9698204514287596e+01  9.9810748385354557e+01  9.9788749609414239e+01  9.9731855905612875e+01  9.9843339289874891e+01  1.0004767165327165e+02  1.0016518666290932e+02  9.9979861059187144e+01  1.0010168747099905e+02  9.9917143724566785e+01  1.0004258144193808e+02  9.9859848424515079e+01  9.9988315260783395e+01  9.9808217145463502e+01  9.9939220826529706e+01  9.9762424326520232e+01  9.9895541767554974e+01  9.9722592589288894e+01  9.9857454253402480e+01  9.9688805593168922e+01  9.9825083419504026e+01  9.9661118464145275e+01  9.9798516321694947e+01  9.9639566135259301e+01  9.9777812068897518e+01  9.9624169858901496e+01  9.9763009600154021e+01  9.9614942089259088e+01  9.9754133440315996e+01  9.9611889881254982e+01  9.9751197669317165e+01  9.9615016906921625e+01  9.9754208260976668e+01  9.9624324149175806e+01  9.9763163881555869e+01  9.9639809295487211e+01  9.9778055179990304e+01  9.9661464815419720e+01  9.9798862545376792e+01  9.9689274675316085e+01  9.9825552252497687e+01  9.9723209583688202e+01  9.9858070845188465e+01  9.9771481327603752e+01  9.9763220699935758e+01  9.9896337565036021e+01  9.9809231407869461e+01  9.9940234430832902e+01  9.9974656112058369e+01  1.0011298473984937e+02  1.0004445685354170e+02  1.0017750856227951e+02  9.9910389115532411e+01  1.0005315658296205e+02  9.9851893169171561e+01  9.9998395769791045e+01  9.9799337128545176e+01  9.9948975383808673e+01  9.9752837277659424e+01  9.9905092996109090e+01  9.9712470163792347e+01  9.9866888730615017e+01  9.9678283143942494e+01  9.9834459597401192e+01  9.9650303041412627e+01  9.9807870893366811e+01  9.9628543158212494e+01  9.9787165198098691e+01  9.9613008814532321e+01  9.9772369333260869e+01  9.9603701542342677e+01  9.9763499547356048e+01  9.9600622027263782e+01  9.9760565110078062e+01  9.9603771864882390e+01  9.9763570439545518e+01  9.9613154171780877e+01  9.9772515834453571e+01  9.9628773067533771e+01  9.9787396837398404e+01  9.9650632018388578e+01  9.9808202211209959e+01  9.9678731016233968e+01  9.9834910467824116e+01  9.9713062521685018e+01  9.9867484832861038e+01  9.9753606157451429e+01  9.9905866504649680e+01  9.9800321822882680e+01  9.9949965885084097e+01  9.9861127752747564e+01  9.9853141929030471e+01  9.9999651783868487e+01  9.9911959590235270e+01  1.0005473695397804e+02  9.9969519686554221e+01  1.0012158565815866e+02  9.9903385512336399e+01  1.0006064600247669e+02  9.9843420371496933e+01  1.0000506701764040e+02  9.9789716897072637e+01  9.9955055737467504e+01  9.9742328472166321e+01  9.9910755914601964e+01  9.9701280419812562e+01  9.9872264284780144e+01  9.9666578899515841e+01  9.9839643243698589e+01  9.9638218120295178e+01  9.9812930862556769e+01  9.9616186175048284e+01  9.9792148785035707e+01  9.9600469665002265e+01  9.9777308349609555e+01  9.9591057218235520e+01  9.9768415165156000e+01  9.9587941970981689e+01  9.9765472293715490e+01  9.9591123057325689e+01  9.9768482141111946e+01  9.9600606134687922e+01  9.9777447113774997e+01  9.9616402957110196e+01  9.9792369063625600e+01  9.9638529991568930e+01  9.9813247507438518e+01  9.9667006064008191e+01  9.9840076573953539e+01  9.9701848984381655e+01  9.9872840584210877e+01  9.9743071162872312e+01  9.9911508153758774e+01  9.9790673907849637e+01  9.9956024524821004e+01  9.9844641115962986e+01  1.0000630215426403e+02  9.9904929083855379e+01  1.0006220787290441e+02  9.9976623217484345e+01  9.9971462843032938e+01  1.0012355017024045e+02  1.0011496358518612e+02  1.0004689870095605e+02  1.0004409893728267e+02  1.0019004922909431e+02  1.0012269037613569e+02  1.0026134395783252e+02  9.9896438176866269e+01  1.0006593213514419e+02  9.9964691318995236e+01  9.9834779979887713e+01  1.0000925285787632e+02  9.9779736006467459e+01  9.9958411699966348e+01  9.9731296511580851e+01  9.9913495800946336e+01  9.9689433771649576e+01  9.9874554734249188e+01  9.9654110260753924e+01  9.9841612323054576e+01  9.9625284979656328e+01  9.9814675722633353e+01  9.9602918440109846e+01  9.9793742464656532e+01  9.9586976561272053e+01  9.9778805869526252e+01  9.9577433616229570e+01  9.9769859073741316e+01  9.9574274306740406e+01  9.9766897827365028e+01  9.9577495011541160e+01  9.9769922157410107e+01  9.9587104233371605e+01  9.9778936951103944e+01  9.9603122255469302e+01  9.9793951478940997e+01  9.9625580003898790e+01  9.9814977845532326e+01  9.9654517104459117e+01  9.9842028325554637e+01  9.9689979083236324e+01  9.9875111494156982e+01  9.9732013712949311e+01  9.9914227037692640e+01  9.9780666158430705e+01  9.9959358930251625e+01  9.9835973547781521e+01  1.0001046693680777e+02  9.9897955465681932e+01  1.0006747458534359e+02  9.9966610481261284e+01  1.0013025686191865e+02  1.0004187728205456e+02  1.0019860933933826e+02  1.0012369673687903e+02  1.0027225251015429e+02  1.0020676079565050e+02  1.0021167076382847e+02  1.0035065314120365e+02  1.0030602272519256e+02  1.0043339645455342e+02  9.9889770158503879e+01  1.0006965158619040e+02  9.9826252249907697e+01  1.0001164652212545e+02  9.9769716437020605e+01  9.9959776751876348e+01  9.9720093313226570e+01  9.9914074211470705e+01  9.9677303275175021e+01  9.9874540842414987e+01  9.9641264952579633e+01  9.9841160457837617e+01  9.9611901308251760e+01  9.9813907485635269e+01  9.9589144200916195e+01  9.9792753536629647e+01  9.9572937827195787e+01  9.9777672339121509e+01  9.9563241265784697e+01  9.9768643357002304e+01  9.9560030245746489e+01  9.9765654280908734e+01  9.9563298205432886e+01  9.9768702504121478e+01  9.9573056676616247e+01  9.9777795643633354e+01  9.9589335006944964e+01  9.9792951127749078e+01  9.9612179414309026e+01  9.9814194836140445e+01  9.9641651351915101e+01  9.9841558742286566e+01  9.9677825111178777e+01  9.9875077450567019e+01  9.9720784619734985e+01  9.9914783477543793e+01  9.9770619000228791e+01  9.9960700889594392e+01  9.9827417359104899e+01  1.0001283711959744e+02  9.9891258987487916e+01  1.0007117083890027e+02  9.9962208665140466e+01  1.0013563871360786e+02  1.0004027436690397e+02  1.0020610180224965e+02  1.0012546386251321e+02  1.0028234471250330e+02  1.0021742737270519e+02  1.0036388444852155e+02  1.0031641243996047e+02  1.0045033117310413e+02  1.0040390787833887e+02  1.0041948290190275e+02  1.0053953245606719e+02  1.0051070970801682e+02  1.0053195526483536e+02  1.0063311959509018e+02  1.0062891916931427e+02  1.0071528970512858e+02  9.9818052102461806e+01  1.0001277196542378e+02  9.9883533405858728e+01  1.0007226407737943e+02  9.9759921938557170e+01  9.9959723796371478e+01  9.9709019853619509e+01  9.9913100742209764e+01  9.9665217848050929e+01  9.9872859289142554e+01  9.9628392513982163e+01  9.9838943987287379e+01  9.9598431535084558e+01  9.9811296457780273e+01  9.9575238275621700e+01  9.9789861904922859e+01  9.9558735076207171e+01  9.9774593856486078e+01  9.9548865600172419e+01  9.9765457557225673e+01  9.9545596423064254e+01  9.9762432267074743e+01  9.9548917971546800e+01  9.9765512610247427e+01  9.9558844866007902e+01  9.9774709052503098e+01  9.9575415685830052e+01  9.9790047532745064e+01  9.9598692144516207e+01  9.9811568229212995e+01  9.9628757633021749e+01  9.9839323392413476e+01  9.9665715017883045e+01  9.9873374101332317e+01  9.9709683579786358e+01  9.9913785728748422e+01  9.9760794535789984e+01  9.9960621617819839e+01  9.9819185414425363e+01  1.0001393460926533e+02  9.9884989124999763e+01  1.0007375398934262e+02  9.9958326952504606e+01  1.0014007022844039e+02  1.0003926170892773e+02  1.0021279741619482e+02  1.0012784750341731e+02  1.0029176588246091e+02  1.0022375692875390e+02  1.0037651833207175e+02  1.0032722810158347e+02  1.0046665846015561e+02  1.0043521226987703e+02  1.0055994546634082e+02  1.0055291107739905e+02  1.0065789588153929e+02  1.0065479753174931e+02  1.0074416841822645e+02  1.0076478616229787e+02  1.0079528375512115e+02  1.0085527495061936e+02  1.0076171045959782e+02  1.0079391902166549e+02  1.0084306043263045e+02  9.9810338039867958e+01  1.0001302526378915e+02  9.9877823020323333e+01  9.9750562542842204e+01  9.9958701631424873e+01  9.9698327212768334e+01  9.9911065658105741e+01  9.9653460671699008e+01  9.9870032391062381e+01  9.9615800740777544e+01  9.9835509540675304e+01  9.9585201859262085e+01  9.9807407268704424e+01  9.9561540101581500e+01  9.9785645036615662e+01  9.9544716622814192e+01  9.9770156435978109e+01  9.9534660014546049e+01  9.9760892553885910e+01  9.9531327850885191e+01  9.9757824205090600e+01  9.9534707583062001e+01  9.9760943224737588e+01  9.9544816864421293e+01  9.9770262923806499e+01  9.9561703333208740e+01  9.9785817741086362e+01  9.9585443831261514e+01  9.9807662063449271e+01  9.9616142988937582e+01  9.9835868120863523e+01  9.9653931009912540e+01  9.9870522764005173e+01  9.9698960453565931e+01  9.9911722828963818e+01  9.9751401319708464e+01  9.9959568462386045e+01  9.9811434492209386e+01  1.0001415384694303e+02  9.9879239060066382e+01  1.0007555259659529e+02  9.9954982314247104e+01  1.0014379976346989e+02  1.0003876784349060e+02  1.0021884968567065e+02  1.0013067805817499e+02  1.0030056164317115e+02  1.0023038767077892e+02  1.0038848422484668e+02  1.0033810213303059e+02  1.0048219247887212e+02  1.0045065215437155e+02  1.0057934364370340e+02  1.0057309810807354e+02  1.0068132159314261e+02  1.0067941863439763e+02  1.0077132056816806e+02  1.0082382420727878e+02  1.0088595296078186e+02  1.0082428912784043e+02  1.0087481589905767e+02  9.9803222502743111e+01  1.0001270493009929e+02  9.9741801498086090e+01  9.9957061425701411e+01  9.9688220569777087e+01  9.9908363112478114e+01  9.9642270780732446e+01  9.9866488678571599e+01  9.9603755378051133e+01  9.9831312544507114e+01  9.9572498500702508e+01  9.9802715813065333e+01  9.9548350939801381e+01  9.9780593771163623e+01  9.9531193983099911e+01  9.9764861057266330e+01  9.9520941964861578e+01  9.9755455179303098e+01  9.9517543893638404e+01  9.9752338802233552e+01  9.9520984374704241e+01  9.9755501053955413e+01  9.9531283940712157e+01  9.9764957981259400e+01  9.9548498827917754e+01  9.9780752198968202e+01  9.9572720165629420e+01  9.9802951694069648e+01  9.9604072476957796e+01  9.9831647660911543e+01  9.9642711265860072e+01  9.9866951120024737e+01  9.9688819394842000e+01  9.9908987936861749e+01  9.9742601419767865e+01  9.9957891482167653e+01  9.9804275735947314e+01  1.0001379218185070e+02  9.9874059777614974e+01  1.0007680096031021e+02  9.9952156693702548e+01  1.0014698815603640e+02  1.0003869838351254e+02  1.0022433665634846e+02  1.0013378098725666e+02  1.0030872079729410e+02  1.0023706690662374e+02  1.0039968051549147e+02  1.0034871447700813e+02  1.0049674823611878e+02  1.0046543545901869e+02  1.0059747568668591e+02  1.0059213635260321e+02  1.0070310864310974e+02  1.0070241451482696e+02  1.0079645070123905e+02  1.0085011754410469e+02  1.0091411762272091e+02  1.0085249045124679e+02  1.0090412322240580e+02  9.9733762963215085e+01  9.9955077092540535e+01  9.9796781951088590e+01  1.0001203499288333e+02  9.9678864644912082e+01  9.9905309012546269e+01  9.9631846523723013e+01  9.9862578580104426e+01  9.9592481926688023e+01  9.9826731100506080e+01  9.9560568189861755e+01  9.9797621699243820e+01  9.9535933373021336e+01  9.9775123697321263e+01  9.9518440686527867e+01  9.9759134302574196e+01  9.9507991379787811e+01  9.9749578425410320e+01  9.9504526553455975e+01  9.9746411124069809e+01  9.9508028170562554e+01  9.9749618983926567e+01  9.9518519412908091e+01  9.9759220593856625e+01  9.9536064430516049e+01  9.9775266172588161e+01  9.9560767441031302e+01  9.9797836296599243e+01  9.9592771044006895e+01  9.9827039573888541e+01  9.9632253466596168e+01  9.9863008960085864e+01  9.9679424354994467e+01  9.9905896247010915e+01  9.9734518151707022e+01  9.9955863843069224e+01  9.9797784734474234e+01  1.0001307292335289e+02  9.9869472341707493e+01  1.0007766473797106e+02  9.9949810896047737e+01  1.0014973636817186e+02  1.0003895031521068e+02  1.0022928937538948e+02  1.0013698953569764e+02  1.0031620252587943e+02  1.0024356943787448e+02  1.0040999750116875e+02  1.0035879369131251e+02  1.0051015674682118e+02  1.0047926317751488e+02  1.0061412996772266e+02  1.0060972654999912e+02  1.0072302707751489e+02  1.0072350317091745e+02  1.0081933189924210e+02  1.0087394567284461e+02  1.0093958286468880e+02  1.0087827489063555e+02  1.0093077407359975e+02  9.9726539468132060e+01  9.9952961346580082e+01  9.9791065806341777e+01  1.0001118276731553e+02  9.9670389585512936e+01  9.9902155302850858e+01  9.9622349947966697e+01  9.9858587041585267e+01  9.9582168697846726e+01  9.9822077146094983e+01  9.9549620113805645e+01  9.9792458203116567e+01  9.9524512387468107e+01  9.9769584170774536e+01  9.9506692743661162e+01  9.9753336711534203e+01  9.9496050763901295e+01  9.9743629405818126e+01  9.9492520455778617e+01  9.9740410429476881e+01  9.9496081397620841e+01  9.9743664052116486e+01  9.9506759135850857e+01  9.9753411149307084e+01  9.9524624892912286e+01  9.9769708791326565e+01  9.9549794532435968e+01  9.9792648850079999e+01  9.9582426615283467e+01  9.9822355438187884e+01  9.9622719209006007e+01  9.9858980824386336e+01  9.9670904984216421e+01  9.9902699277172005e+01  9.9727243530275061e+01  9.9953697850405817e+01  9.9792010417889188e+01  1.0001216304757831e+02  9.9865477876262318e+01  1.0007825999071771e+02  9.9947894941302877e+01  1.0015210516158405e+02  1.0003942158010109e+02  1.0023371101118421e+02  1.0014015196863295e+02  1.0032295326241480e+02  1.0024970059792233e+02  1.0041932994308758e+02  1.0036811409053686e+02  1.0052227120730049e+02  1.0049189472640833e+02  1.0062913294425528e+02  1.0062563460208717e+02  1.0074089599293676e+02  1.0074246916619234e+02  1.0083979125269464e+02  1.0089514524371512e+02  1.0096221051043159e+02  1.0090145662045298e+02  1.0095461376825993e+02  9.9720198613408215e+01  9.9950878428362387e+01  9.9786103929063003e+01  9.9662896672445044e+01  9.9899101547833695e+01  9.9613911456678593e+01  9.9854743932012852e+01  9.9572970474696135e+01  9.9817605759585533e+01  9.9539828706966617e+01  9.9787500619662254e+01  9.9514277459716183e+01  9.9764265900010031e+01  9.9496150219982084e+01  9.9747769811228409e+01  9.9485326461401016e+01  9.9737916050571712e+01  9.9481734011213831e+01  9.9734646755086501e+01  9.9485350355251384e+01  9.9737944147295991e+01  9.9496203085794050e+01  9.9747831093387603e+01  9.9514369559346932e+01  9.9764370645349601e+01  9.9539975701906201e+01  9.9787664499889161e+01  9.9573193767620864e+01  9.9817850161049094e+01  9.9614238666610461e+01  9.9855096404832807e+01  9.9663362326957639e+01  9.9899596431202895e+01  9.9720844936682155e+01  9.9951557630977732e+01  9.9786982475321906e+01  1.0001118679304754e+02  9.9862065300162669e+01  1.0007866726382166e+02  9.9946355429354995e+01  1.0015412895805387e+02  1.0004001711954071e+02  1.0023758949023369e+02  1.0014313514672210e+02  1.0032891685208472e+02  1.0025529618943034e+02  1.0042758340747118e+02  1.0037649118732202e+02  1.0053296840992577e+02  1.0050313872383823e+02  1.0064234519662639e+02  1.0063967874436013e+02  1.0075657489458104e+02  1.0075914878941995e+02  1.0085769819025171e+02  1.0091359473618407e+02  1.0098189897352913e+02  1.0092189726845950e+02  1.0097552844410086e+02  9.9714788787770630e+01  9.9948954144501641e+01  9.9781912616710343e+01  9.9656463495274622e+01  9.9896304321846642e+01  9.9606634314618987e+01  9.9851232666773939e+01  9.9565012324899044e+01  9.9813523007485912e+01  9.9531336821804274e+01  9.9782973401193601e+01  9.9505385187890454e+01  9.9759407493609288e+01  9.9486979463111453e+01  9.9742682223296896e+01  9.9475990634652817e+01  9.9732692943052399e+01  9.9472341311042015e+01  9.9729376661764732e+01  9.9476007196259985e+01  9.9732713848257632e+01  9.9487017591909336e+01  9.9742729039959798e+01  9.9505455002252660e+01  9.9759490335359970e+01  9.9531453772080440e+01  9.9783107695655801e+01  9.9565197540055706e+01  9.9813729819743699e+01  9.9606915084989311e+01  9.9851539152858024e+01  9.9656873974743036e+01  9.9896744360512969e+01  9.9715370797899581e+01  9.9949569128598355e+01  9.9782717296387688e+01  1.0001023603070199e+02  9.9859217107836258e+01  1.0007894190140469e+02  9.9945140569781472e+01  1.0015582548379489e+02  1.0004065242353043e+02  1.0024090568912627e+02  1.0014582580629715e+02  1.0033404041678891e+02  1.0026022080401829e+02  1.0043467698540130e+02  1.0038377668437990e+02  1.0054214778305052e+02  1.0051284481945621e+02  1.0065365678112634e+02  1.0065171917439785e+02  1.0076995611207344e+02  1.0077341863142973e+02  1.0087295518997695e+02  1.0092920459936346e+02  1.0099857449412487e+02  1.0093949468710959e+02  1.0099343525608705e+02  9.9710343863009854e+01  9.9947283709263957e+01  9.9651148425047296e+01  9.9893884752575417e+01  9.9600598743140850e+01  9.9848197301488682e+01  9.955839325063280