<?xml version="1.0"?>
<VTKFile type="UnstructuredGrid"  version="0.1"  >
<UnstructuredGrid>
<Piece  NumberOfPoints="18254" NumberOfCells="96440">
<Points>
<DataArray  type="Float64"  NumberOfComponents="3"  format="ascii">0 0 0  0.025 0 0  0.025 0.025 0  0.025 0.025 0.025  0.025 0 0.025  0 0 0.025  0 0.025 0  0 0.025 0.025  0.05 0 0  0.05 0.025 0  0.05 0.025 0.025  0.05 0 0.025  0.075 0 0  0.075 0.025 0  0.075 0.025 0.025  0.075 0 0.025  0.1 0 0  0.1 0.025 0  0.1 0.025 0.025  0.1 0 0.025  0.125 0 0  0.125 0.025 0  0.125 0.025 0.025  0.125 0 0.025  0.15 0 0  0.15 0.025 0  0.15 0.025 0.025  0.15 0 0.025  0.175 0 0.025  0.175 0.025 0.025  0.175 0.025 0  0.025 0.05 0  0.025 0.05 0.025  0 0.05 0  0 0.05 0.025  0.05 0.05 0  0.05 0.05 0.025  0.075 0.05 0  0.075 0.05 0.025  0.1 0.05 0  0.1 0.05 0.025  0.125 0.05 0  0.125 0.05 0.025  0.15 0.05 0  0.15 0.05 0.025  0.175 0.05 0  0.175 0.05 0.025  0.025 0.075 0  0.025 0.075 0.025  0 0.075 0  0 0.075 0.025  0.05 0.075 0  0.05 0.075 0.025  0.075 0.075 0  0.075 0.075 0.025  0.1 0.075 0  0.1 0.075 0.025  0.125 0.075 0  0.125 0.075 0.025  0.15 0.075 0  0.15 0.075 0.025  0.175 0.075 0  0.175 0.075 0.025  0.2 0.075 0.025  0.025 0.1 0  0.025 0.1 0.025  0 0.1 0  0 0.1 0.025  0.05 0.1 0  0.05 0.1 0.025  0.075 0.1 0  0.075 0.1 0.025  0.1 0.1 0  0.1 0.1 0.025  0.125 0.1 0  0.125 0.1 0.025  0.15 0.1 0  0.15 0.1 0.025  0.175 0.1 0  0.175 0.1 0.025  0.2 0.1 0.025  0.2 0.1 0  0.025 0.125 0  0.025 0.125 0.025  0 0.125 0  0 0.125 0.025  0.05 0.125 0  0.05 0.125 0.025  0.075 0.125 0  0.075 0.125 0.025  0.1 0.125 0  0.1 0.125 0.025  0.125 0.125 0  0.125 0.125 0.025  0.15 0.125 0  0.15 0.125 0.025  0.175 0.125 0  0.175 0.125 0.025  0.2 0.125 0  0.2 0.125 0.025  0.025 0.15 0  0.025 0.15 0.025  0 0.15 0  0 0.15 0.025  0.05 0.15 0  0.05 0.15 0.025  0.075 0.15 0  0.075 0.15 0.025  0.1 0.15 0  0.1 0.15 0.025  0.125 0.15 0  0.125 0.15 0.025  0.15 0.15 0  0.15 0.15 0.025  0.175 0.15 0  0.175 0.15 0.025  0.2 0.15 0  0.2 0.15 0.025  0.225 0.15 0  0.225 0.15 0.025  0.025 0.175 0  0.025 0.175 0.025  0 0.175 0  0 0.175 0.025  0.05 0.175 0  0.05 0.175 0.025  0.075 0.175 0  0.075 0.175 0.025  0.1 0.175 0  0.1 0.175 0.025  0.125 0.175 0  0.125 0.175 0.025  0.15 0.175 0  0.15 0.175 0.025  0.175 0.175 0  0.175 0.175 0.025  0.2 0.175 0  0.2 0.175 0.025  0.225 0.175 0  0.225 0.175 0.025  0.25 0.175 0.025  0.025 0.2 0  0.025 0.2 0.025  0 0.2 0  0 0.2 0.025  0.05 0.2 0  0.05 0.2 0.025  0.075 0.2 0  0.075 0.2 0.025  0.1 0.2 0  0.1 0.2 0.025  0.125 0.2 0  0.125 0.2 0.025  0.15 0.2 0  0.15 0.2 0.025  0.175 0.2 0  0.175 0.2 0.025  0.2 0.2 0  0.2 0.2 0.025  0.225 0.2 0  0.225 0.2 0.025  0.25 0.2 0.025  0.25 0.2 0  0.025 0.225 0  0.025 0.225 0.025  0 0.225 0  0 0.225 0.025  0.05 0.225 0  0.05 0.225 0.025  0.075 0.225 0  0.075 0.225 0.025  0.1 0.225 0  0.1 0.225 0.025  0.125 0.225 0  0.125 0.225 0.025  0.15 0.225 0  0.15 0.225 0.025  0.175 0.225 0  0.175 0.225 0.025  0.2 0.225 0  0.2 0.225 0.025  0.225 0.225 0  0.225 0.225 0.025  0.25 0.225 0  0.25 0.225 0.025  0.025 0.25 0  0.025 0.25 0.025  0 0.25 0  0 0.25 0.025  0.05 0.25 0  0.05 0.25 0.025  0.075 0.25 0  0.075 0.25 0.025  0.1 0.25 0  0.1 0.25 0.025  0.125 0.25 0  0.125 0.25 0.025  0.15 0.25 0  0.15 0.25 0.025  0.175 0.25 0  0.175 0.25 0.025  0.2 0.25 0  0.2 0.25 0.025  0.225 0.25 0  0.225 0.25 0.025  0.25 0.25 0  0.25 0.25 0.025  0.275 0.25 0.025  0.025 0.275 0  0.025 0.275 0.025  0 0.275 0  0 0.275 0.025  0.05 0.275 0  0.05 0.275 0.025  0.075 0.275 0  0.075 0.275 0.025  0.1 0.275 0  0.1 0.275 0.025  0.125 0.275 0  0.125 0.275 0.025  0.15 0.275 0  0.15 0.275 0.025  0.175 0.275 0  0.175 0.275 0.025  0.2 0.275 0  0.2 0.275 0.025  0.225 0.275 0  0.225 0.275 0.025  0.25 0.275 0  0.25 0.275 0.025  0.275 0.275 0.025  0.275 0.275 0  0.025 0.3 0  0.025 0.3 0.025  0 0.3 0  0 0.3 0.025  0.05 0.3 0  0.05 0.3 0.025  0.075 0.3 0  0.075 0.3 0.025  0.1 0.3 0  0.1 0.3 0.025  0.125 0.3 0  0.125 0.3 0.025  0.15 0.3 0  0.15 0.3 0.025  0.175 0.3 0  0.175 0.3 0.025  0.2 0.3 0  0.2 0.3 0.025  0.225 0.3 0  0.225 0.3 0.025  0.25 0.3 0  0.25 0.3 0.025  0.275 0.3 0  0.275 0.3 0.025  0.025 0.325 0  0.025 0.325 0.025  0 0.325 0  0 0.325 0.025  0.05 0.325 0  0.05 0.325 0.025  0.075 0.325 0  0.075 0.325 0.025  0.1 0.325 0  0.1 0.325 0.025  0.125 0.325 0  0.125 0.325 0.025  0.15 0.325 0  0.15 0.325 0.025  0.175 0.325 0  0.175 0.325 0.025  0.2 0.325 0  0.2 0.325 0.025  0.225 0.325 0  0.225 0.325 0.025  0.25 0.325 0  0.25 0.325 0.025  0.275 0.325 0  0.275 0.325 0.025  0.025 0.35 0  0.025 0.35 0.025  0 0.35 0  0 0.35 0.025  0.05 0.35 0  0.05 0.35 0.025  0.075 0.35 0  0.075 0.35 0.025  0.1 0.35 0  0.1 0.35 0.025  0.125 0.35 0  0.125 0.35 0.025  0.15 0.35 0  0.15 0.35 0.025  0.175 0.35 0  0.175 0.35 0.025  0.2 0.35 0  0.2 0.35 0.025  0.225 0.35 0  0.225 0.35 0.025  0.25 0.35 0  0.25 0.35 0.025  0.275 0.35 0  0.275 0.35 0.025  0.3 0.35 0.025  0.025 0.375 0  0.025 0.375 0.025  0 0.375 0  0 0.375 0.025  0.05 0.375 0  0.05 0.375 0.025  0.075 0.375 0  0.075 0.375 0.025  0.1 0.375 0  0.1 0.375 0.025  0.125 0.375 0  0.125 0.375 0.025  0.15 0.375 0  0.15 0.375 0.025  0.175 0.375 0  0.175 0.375 0.025  0.2 0.375 0  0.2 0.375 0.025  0.225 0.375 0  0.225 0.375 0.025  0.25 0.375 0  0.25 0.375 0.025  0.275 0.375 0  0.275 0.375 0.025  0.3 0.375 0.025  0.025 0.4 0  0.025 0.4 0.025  0 0.4 0  0 0.4 0.025  0.05 0.4 0  0.05 0.4 0.025  0.075 0.4 0  0.075 0.4 0.025  0.1 0.4 0  0.1 0.4 0.025  0.125 0.4 0  0.125 0.4 0.025  0.15 0.4 0  0.15 0.4 0.025  0.175 0.4 0  0.175 0.4 0.025  0.2 0.4 0  0.2 0.4 0.025  0.225 0.4 0  0.225 0.4 0.025  0.25 0.4 0  0.25 0.4 0.025  0.275 0.4 0  0.275 0.4 0.025  0.3 0.4 0.025  0.3 0.4 0  0.025 0.425 0  0.025 0.425 0.025  0 0.425 0  0 0.425 0.025  0.05 0.425 0  0.05 0.425 0.025  0.075 0.425 0  0.075 0.425 0.025  0.1 0.425 0  0.1 0.425 0.025  0.125 0.425 0  0.125 0.425 0.025  0.15 0.425 0  0.15 0.425 0.025  0.175 0.425 0  0.175 0.425 0.025  0.2 0.425 0  0.2 0.425 0.025  0.225 0.425 0  0.225 0.425 0.025  0.25 0.425 0  0.25 0.425 0.025  0.275 0.425 0  0.275 0.425 0.025  0.3 0.425 0  0.3 0.425 0.025  0.025 0.45 0  0.025 0.45 0.025  0 0.45 0  0 0.45 0.025  0.05 0.45 0  0.05 0.45 0.025  0.075 0.45 0  0.075 0.45 0.025  0.1 0.45 0  0.1 0.45 0.025  0.125 0.45 0  0.125 0.45 0.025  0.15 0.45 0  0.15 0.45 0.025  0.175 0.45 0  0.175 0.45 0.025  0.2 0.45 0  0.2 0.45 0.025  0.225 0.45 0  0.225 0.45 0.025  0.25 0.45 0  0.25 0.45 0.025  0.275 0.45 0  0.275 0.45 0.025  0.3 0.45 0  0.3 0.45 0.025  0.025 0.475 0  0.025 0.475 0.025  0 0.475 0  0 0.475 0.025  0.05 0.475 0  0.05 0.475 0.025  0.075 0.475 0  0.075 0.475 0.025  0.1 0.475 0  0.1 0.475 0.025  0.125 0.475 0  0.125 0.475 0.025  0.15 0.475 0  0.15 0.475 0.025  0.175 0.475 0  0.175 0.475 0.025  0.2 0.475 0  0.2 0.475 0.025  0.225 0.475 0  0.225 0.475 0.025  0.25 0.475 0  0.25 0.475 0.025  0.275 0.475 0  0.275 0.475 0.025  0.3 0.475 0  0.3 0.475 0.025  0.325 0.475 0.025  0.025 0.5 0  0.025 0.5 0.025  0 0.5 0  0 0.5 0.025  0.05 0.5 0  0.05 0.5 0.025  0.075 0.5 0  0.075 0.5 0.025  0.1 0.5 0  0.1 0.5 0.025  0.125 0.5 0  0.125 0.5 0.025  0.15 0.5 0  0.15 0.5 0.025  0.175 0.5 0  0.175 0.5 0.025  0.2 0.5 0  0.2 0.5 0.025  0.225 0.5 0  0.225 0.5 0.025  0.25 0.5 0  0.25 0.5 0.025  0.275 0.5 0  0.275 0.5 0.025  0.3 0.5 0  0.3 0.5 0.025  0.325 0.5 0.025  0.325 0.5 0  0.025 0.525 0  0.025 0.525 0.025  0 0.525 0  0 0.525 0.025  0.05 0.525 0  0.05 0.525 0.025  0.075 0.525 0  0.075 0.525 0.025  0.1 0.525 0  0.1 0.525 0.025  0.125 0.525 0  0.125 0.525 0.025  0.15 0.525 0  0.15 0.525 0.025  0.175 0.525 0  0.175 0.525 0.025  0.2 0.525 0  0.2 0.525 0.025  0.225 0.525 0  0.225 0.525 0.025  0.25 0.525 0  0.25 0.525 0.025  0.275 0.525 0  0.275 0.525 0.025  0.3 0.525 0  0.3 0.525 0.025  0.325 0.525 0  0.325 0.525 0.025  0.025 0.55 0  0.025 0.55 0.025  0 0.55 0  0 0.55 0.025  0.05 0.55 0  0.05 0.55 0.025  0.075 0.55 0  0.075 0.55 0.025  0.1 0.55 0  0.1 0.55 0.025  0.125 0.55 0  0.125 0.55 0.025  0.15 0.55 0  0.15 0.55 0.025  0.175 0.55 0  0.175 0.55 0.025  0.2 0.55 0  0.2 0.55 0.025  0.225 0.55 0  0.225 0.55 0.025  0.25 0.55 0  0.25 0.55 0.025  0.275 0.55 0  0.275 0.55 0.025  0.3 0.55 0  0.3 0.55 0.025  0.325 0.55 0  0.325 0.55 0.025  0.35 0.55 0  0.35 0.55 0.025  0.025 0.575 0  0.025 0.575 0.025  0 0.575 0  0 0.575 0.025  0.05 0.575 0  0.05 0.575 0.025  0.075 0.575 0  0.075 0.575 0.025  0.1 0.575 0  0.1 0.575 0.025  0.125 0.575 0  0.125 0.575 0.025  0.15 0.575 0  0.15 0.575 0.025  0.175 0.575 0  0.175 0.575 0.025  0.2 0.575 0  0.2 0.575 0.025  0.225 0.575 0  0.225 0.575 0.025  0.25 0.575 0  0.25 0.575 0.025  0.275 0.575 0  0.275 0.575 0.025  0.3 0.575 0  0.3 0.575 0.025  0.325 0.575 0  0.325 0.575 0.025  0.35 0.575 0  0.35 0.575 0.025  0.025 0.6 0  0.025 0.6 0.025  0 0.6 0  0 0.6 0.025  0.05 0.6 0  0.05 0.6 0.025  0.075 0.6 0  0.075 0.6 0.025  0.1 0.6 0  0.1 0.6 0.025  0.125 0.6 0  0.125 0.6 0.025  0.15 0.6 0  0.15 0.6 0.025  0.175 0.6 0  0.175 0.6 0.025  0.2 0.6 0  0.2 0.6 0.025  0.225 0.6 0  0.225 0.6 0.025  0.25 0.6 0  0.25 0.6 0.025  0.275 0.6 0  0.275 0.6 0.025  0.3 0.6 0  0.3 0.6 0.025  0.325 0.6 0  0.325 0.6 0.025  0.35 0.6 0  0.35 0.6 0.025  0.375 0.6 0.025  0.025 0.625 0  0.025 0.625 0.025  0 0.625 0  0 0.625 0.025  0.05 0.625 0  0.05 0.625 0.025  0.075 0.625 0  0.075 0.625 0.025  0.1 0.625 0  0.1 0.625 0.025  0.125 0.625 0  0.125 0.625 0.025  0.15 0.625 0  0.15 0.625 0.025  0.175 0.625 0  0.175 0.625 0.025  0.2 0.625 0  0.2 0.625 0.025  0.225 0.625 0  0.225 0.625 0.025  0.25 0.625 0  0.25 0.625 0.025  0.275 0.625 0  0.275 0.625 0.025  0.3 0.625 0  0.3 0.625 0.025  0.325 0.625 0  0.325 0.625 0.025  0.35 0.625 0  0.35 0.625 0.025  0.375 0.625 0.025  0.025 0.65 0  0.025 0.65 0.025  0 0.65 0  0 0.65 0.025  0.05 0.65 0  0.05 0.65 0.025  0.075 0.65 0  0.075 0.65 0.025  0.1 0.65 0  0.1 0.65 0.025  0.125 0.65 0  0.125 0.65 0.025  0.15 0.65 0  0.15 0.65 0.025  0.175 0.65 0  0.175 0.65 0.025  0.2 0.65 0  0.2 0.65 0.025  0.225 0.65 0  0.225 0.65 0.025  0.25 0.65 0  0.25 0.65 0.025  0.275 0.65 0  0.275 0.65 0.025  0.3 0.65 0  0.3 0.65 0.025  0.325 0.65 0  0.325 0.65 0.025  0.35 0.65 
[...]
<PointData  Scalars="f_11"> 
<DataArray  type="Float64"  Name="f_11"  format="ascii">3.0000000000000000e+02  3.0000000000000000e+02  3.0000000000000000e+02  2.9995647456333933e+02  3.0000000000000000e+02  3.0000000000000000e+02  3.0000000000000000e+02  3.0000000000000000e+02  3.0000000000000000e+02  3.0000000000000000e+02  2.9993391561624389e+02  3.0000000000000000e+02  3.0000000000000000e+02  3.0000000000000000e+02  2.9992000661474623e+02  3.0000000000000000e+02  3.0000000000000000e+02  3.0000000000000000e+02  2.9991041492450671e+02  3.0000000000000000e+02  3.0000000000000000e+02  3.0000000000000000e+02  2.9990332280444312e+02  3.0000000000000000e+02  3.0000000000000000e+02  3.0000000000000000e+02  2.9989784143835794e+02  3.0000000000000000e+02  3.0000000000000000e+02  2.9989348003449305e+02  3.0000000000000000e+02  3.0000000000000000e+02  2.9993388787338569e+02  3.0000000000000000e+02  3.0000000000000000e+02  2.9999999999999994e+02  2.9989491350633870e+02  2.9999999999999994e+02  2.9986924328267241e+02  2.9999999999999994e+02  2.9985094806454100e+02  2.9999999999999994e+02  2.9983718649054333e+02  2.9999999999999994e+02  2.9982644717639943e+02  2.9999999999999994e+02  2.9981785130795163e+02  3.0000000000000000e+02  2.9991992992973655e+02  3.0000000000000000e+02  3.0000000000000000e+02  2.9999999999999994e+02  2.9986917644091864e+02  3.0000000000000000e+02  2.9983408327063347e+02  3.0000000000000000e+02  2.9980830632525823e+02  3.0000000000000000e+02  2.9978855408701651e+02  3.0000000000000000e+02  2.9977295836725023e+02  3.0000000000000000e+02  2.9976037906360108e+02  2.9975007847506026e+02  3.0000000000000000e+02  2.9991027412597464e+02  3.0000000000000000e+02  3.0000000000000000e+02  2.9999999999999994e+02  2.9985078658883305e+02  3.0000000000000000e+02  2.9980820000089278e+02  3.0000000000000000e+02  2.9977613696152162e+02  3.0000000000000000e+02  2.9975114559959246e+02  3.0000000000000000e+02  2.9973117960558471e+02  3.0000000000000000e+02  2.9971494166466186e+02  2.9970156604726799e+02  3.0000000000000000e+02  3.0000000000000000e+02  2.9990310770239506e+02  3.0000000000000000e+02  3.0000000000000000e+02  2.9999999999999994e+02  2.9983691130181398e+02  3.0000000000000000e+02  2.9978831427475353e+02  3.0000000000000000e+02  2.9975100433949973e+02  3.0000000000000000e+02  2.9972149430424804e+02  3.0000000000000000e+02  2.9969766084867632e+02  3.0000000000000000e+02  2.9967812048218025e+02  3.0000000000000000e+02  2.9966192677827269e+02  3.0000000000000000e+02  2.9989754585381115e+02  3.0000000000000000e+02  3.0000000000000000e+02  2.9999999999999994e+02  2.9982604614071028e+02  3.0000000000000000e+02  2.9977256734635625e+02  3.0000000000000000e+02  2.9973087404939014e+02  3.0000000000000000e+02  2.9969749134870494e+02  3.0000000000000000e+02  2.9967027065712278e+02  3.0000000000000000e+02  2.9964778595453777e+02  3.0000000000000000e+02  2.9962904333739573e+02  3.0000000000000000e+02  2.9961332521843684e+02  3.0000000000000000e+02  2.9989310100192375e+02  3.0000000000000000e+02  3.0000000000000000e+02  2.9999999999999994e+02  2.9981731788489134e+02  3.0000000000000000e+02  2.9975982662418488e+02  3.0000000000000000e+02  2.9971445801398505e+02  3.0000000000000000e+02  2.9967776417895823e+02  3.0000000000000000e+02  2.9964759568236786e+02  3.0000000000000000e+02  2.9962250897857837e+02  3.0000000000000000e+02  2.9960148438725457e+02  3.0000000000000000e+02  2.9958377576110439e+02  2.9956882296555204e+02  3.0000000000000000e+02  2.9988947855882520e+02  3.0000000000000000e+02  3.0000000000000000e+02  2.9999999999999994e+02  2.9981018176257146e+02  3.0000000000000000e+02  2.9974936046949654e+02  3.0000000000000000e+02  2.9970089787850759e+02  3.0000000000000000e+02  2.9966137495429098e+02  3.0000000000000000e+02  2.9962865179234478e+02  3.0000000000000000e+02  2.9960128083645964e+02  3.0000000000000000e+02  2.9957823008443455e+02  3.0000000000000000e+02  2.9955873673959786e+02  2.9954222241414550e+02  3.0000000000000000e+02  3.0000000000000000e+02  2.9988648782344131e+02  3.0000000000000000e+02  3.0000000000000000e+02  2.9999999999999994e+02  2.9980427786895990e+02  3.0000000000000000e+02  2.9974067341758774e+02  3.0000000000000000e+02  2.9968959807909039e+02  3.0000000000000000e+02  2.9964765892887652e+02  3.0000000000000000e+02  2.9961272912537407e+02  3.0000000000000000e+02  2.9958336393375930e+02  3.0000000000000000e+02  2.9955852700514532e+02  3.0000000000000000e+02  2.9953744671425102e+02  3.0000000000000000e+02  2.9951953344038543e+02  3.0000000000000000e+02  2.9988399875926632e+02  3.0000000000000000e+02  3.0000000000000000e+02  2.9999999999999994e+02  2.9979935747544312e+02  3.0000000000000000e+02  2.9973341694711786e+02  3.0000000000000000e+02  2.9968013178242262e+02  3.0000000000000000e+02  2.9963613124146133e+02  3.0000000000000000e+02  2.9959930189470526e+02  3.0000000000000000e+02  2.9956820491928323e+02  3.0000000000000000e+02  2.9954180411618324e+02  3.0000000000000000e+02  2.9951932397842933e+02  3.0000000000000000e+02  2.9950016846013017e+02  2.9948387094665316e+02  3.0000000000000000e+02  2.9988191913456518e+02  3.0000000000000000e+02  3.0000000000000000e+02  2.9999999999999994e+02  2.9979524253575624e+02  3.0000000000000000e+02  2.9972733835843871e+02  3.0000000000000000e+02  2.9967218504141420e+02  3.0000000000000000e+02  2.9962643015500788e+02  3.0000000000000000e+02  2.9958797265880298e+02  3.0000000000000000e+02  2.9955538070176709e+02  3.0000000000000000e+02  2.9952762058934917e+02  3.0000000000000000e+02  2.9950391593401201e+02  3.0000000000000000e+02  2.9948366744997287e+02  2.9946640380011729e+02  3.0000000000000000e+02  3.0000000000000000e+02  2.9988018156163724e+02  3.0000000000000000e+02  3.0000000000000000e+02  2.9999999999999994e+02  2.9979180211342373e+02  3.0000000000000000e+02  2.9972225004984296e+02  3.0000000000000000e+02  2.9966552220228272e+02  3.0000000000000000e+02  2.9961828102739179e+02  3.0000000000000000e+02  2.9957843634467685e+02  3.0000000000000000e+02  2.9954456326866023e+02  3.0000000000000000e+02  2.9951563167425866e+02  3.0000000000000000e+02  2.9949086600976494e+02  3.0000000000000000e+02  2.9946966578130701e+02  3.0000000000000000e+02  2.9945155703542946e+02  3.0000000000000000e+02  2.9987873572718985e+02  3.0000000000000000e+02  3.0000000000000000e+02  2.9999999999999994e+02  2.9978893798427822e+02  3.0000000000000000e+02  2.9971801029022186e+02  3.0000000000000000e+02  2.9965996370895249e+02  3.0000000000000000e+02  2.9961147267941720e+02  3.0000000000000000e+02  2.9957045624351974e+02  3.0000000000000000e+02  2.9953549594080027e+02  3.0000000000000000e+02  2.9950556551922523e+02  3.0000000000000000e+02  2.9947989114610459e+02  3.0000000000000000e+02  2.9945787234855686e+02  3.0000000000000000e+02  2.9943903394682172e+02  3.0000000000000000e+02  2.9987754352208202e+02  3.0000000000000000e+02  3.0000000000000000e+02  2.9999999999999994e+02  2.9978657548840852e+02  3.0000000000000000e+02  2.9971451077221167e+02  3.0000000000000000e+02  2.9965537144035312e+02  3.0000000000000000e+02  2.9960584148167891e+02  3.0000000000000000e+02  2.9956384758430505e+02  3.0000000000000000e+02  2.9952797692520483e+02  3.0000000000000000e+02  2.9949720698846761e+02  3.0000000000000000e+02  2.9947076601069415e+02  3.0000000000000000e+02  2.9944805421913628e+02  3.0000000000000000e+02  2.9942859607948179e+02  2.9941200963615000e+02  3.0000000000000000e+02  2.9987657587901163e+02  3.0000000000000000e+02  3.0000000000000000e+02  2.9999999999999994e+02  2.9978465753004201e+02  3.0000000000000000e+02  2.9971166833007095e+02  3.0000000000000000e+02  2.9965163879294579e+02  3.0000000000000000e+02  2.9960126041522307e+02  3.0000000000000000e+02  2.9955846607661715e+02  3.0000000000000000e+02  2.9952184770759516e+02  3.0000000000000000e+02  2.9949038614287542e+02  3.0000000000000000e+02  2.9946331170189069e+02  3.0000000000000000e+02  2.9944002561905558e+02  3.0000000000000000e+02  2.9942005250794506e+02  2.9940300991861005e+02  3.0000000000000000e+02  2.9987581066397968e+02  3.0000000000000000e+02  3.0000000000000000e+02  2.9999999999999994e+02  2.9978314054624678e+02  3.0000000000000000e+02  2.9970941931265730e+02  3.0000000000000000e+02  2.9964868385360347e+02  3.0000000000000000e+02  2.9959763143843327e+02  3.0000000000000000e+02  2.9955419981450302e+02  3.0000000000000000e+02  2.9951698476068538e+02  3.0000000000000000e+02  2.9948496994120205e+02  3.0000000000000000e+02  2.9945738756169879e+02  3.0000000000000000e+02  2.9943363992189688e+02  3.0000000000000000e+02  2.9941325202633823e+02  2.9939584129516345e+02  3.0000000000000000e+02  3.0000000000000000e+02  2.9987523124593486e+02  3.0000000000000000e+02  3.0000000000000000e+02  2.9999999999999994e+02  2.9978199175631181e+02  3.0000000000000000e+02  2.9970771571056957e+02  3.0000000000000000e+02  2.9964644465144011e+02  3.0000000000000000e+02  2.9959488011914800e+02  3.0000000000000000e+02  2.9955096352164037e+02  3.0000000000000000e+02  2.9951329359371823e+02  3.0000000000000000e+02  2.9948085623736716e+02  3.0000000000000000e+02  2.9945288521861124e+02  3.0000000000000000e+02  2.9942878379649807e+02  3.0000000000000000e+02  2.9940807743063357e+02  3.0000000000000000e+02  2.9939038359714590e+02  3.0000000000000000e+02  2.9987482552125948e+02  3.0000000000000000e+02  3.0000000000000000e+02  2.9999999999999994e+02  2.9978118727749825e+02  3.0000000000000000e+02  2.9970652248535191e+02  3.0000000000000000e+02  2.9964487585645327e+02  3.0000000000000000e+02  2.9959295186912493e+02  3.0000000000000000e+02  2.9954869447863706e+02  3.0000000000000000e+02  2.9951070450704952e+02  3.0000000000000000e+02  2.9947796946797172e+02  3.0000000000000000e+02  2.9944972428428048e+02  3.0000000000000000e+02  2.9942537296264038e+02  3.0000000000000000e+02  2.9940444136169657e+02  3.0000000000000000e+02  2.9938654707596766e+02  3.0000000000000000e+02  2.9987458525712429e+02  3.0000000000000000e+02  3.0000000000000000e+02  2.9999999999999994e+02  2.9978071085251065e+02  3.0000000000000000e+02  2.9970581575667433e+02  3.0000000000000000e+02  2.9964394652466621e+02  3.0000000000000000e+02  2.9959180935437712e+02  3.0000000000000000e+02  2.9954734970255760e+02  3.0000000000000000e+02  2.9950916963274915e+02  3.0000000000000000e+02  2.9947625762878880e+02  3.0000000000000000e+02  2.9944784932216618e+02  3.0000000000000000e+02  2.9942334919061705e+02  3.0000000000000000e+02  2.9940228335956073e+02  3.0000000000000000e+02  2.9938426952400346e+02  2.9936899691085847e+02  3.0000000000000000e+02  2.9987450567041037e+02  3.0000000000000000e+02  3.0000000000000000e+02  2.9999999999999994e+02  2.9978055303155912e+02  3.0000000000000000e+02  2.9970558163290553e+02  3.0000000000000000e+02  2.9964363863695291e+02  3.0000000000000000e+02  2.9959143080855711e+02  3.0000000000000000e+02  2.9954690410046544e+02  3.0000000000000000e+02  2.9950866098760025e+02  3.0000000000000000e+02  2.9947569027675490e+02  3.0000000000000000e+02  2.9944722783688405e+02  3.0000000000000000e+02  2.9942267830532501e+02  3.0000000000000000e+02  2.9940156789989305e+02  3.0000000000000000e+02  2.9938351435306174e+02  2.9936820688703261e+02  3.0000000000000000e+02  3.0000000000000000e+02  2.9987458519254005e+02  3.0000000000000000e+02  3.0000000000000000e+02  2.9999999999999994e+02  2.9978071071485812e+02  3.0000000000000000e+02  2.9970581555548574e+02  3.0000000000000000e+02  2.9964394627743746e+02  3.0000000000000000e+02  2.9959180908145464e+02  3.0000000000000000e+02  2.9954734942418082e+02  3.0000000000000000e+02  2.9950916936729038e+02  3.0000000000000000e+02  2.9947625739177840e+02  3.0000000000000000e+02  2.9944784912587357e+02  3.0000000000000000e+02  2.9942334904402531e+02  3.0000000000000000e+02  2.9940228326861251e+02  3.0000000000000000e+02  2.9938426949201823e+02  3.0000000000000000e+02  2.9936899693904184e+02  3.0000000000000000e+02  2.9987482539384160e+02  3.0000000000000000e+02  3.0000000000000000e+02  2.9999999999999994e+02  2.9978118700537897e+02  3.0000000000000000e+02  2.9970652208768041e+02  3.0000000000000000e+02  2.9964487536839528e+02  3.0000000000000000e+02  2.9959295133149010e+02  3.0000000000000000e+02  2.9954869393190381e+02  3.0000000000000000e+02  2.9951070398783366e+02  3.0000000000000000e+02  2.9947796900709437e+02  3.0000000000000000e+02  2.9944972390596109e+02  3.0000000000000000e+02  2.9942537268448348e+02  3.0000000000000000e+02  2.9940444119521612e+02  3.0000000000000000e+02  2.9938654702744537e+02  3.0000000000000000e+02  2.9937137943043598e+02  3.0000000000000000e+02  2.9935868545102613e+02  3.0000000000000000e+02  2.9987523105917671e+02  3.0000000000000000e+02  3.0000000000000000e+02  2.9999999999999994e+02  2.9978199135609856e+02  3.0000000000000000e+02  2.9970771512585651e+02  3.0000000000000000e+02  2.9964644393541886e+02  3.0000000000000000e+02  2.9959487933332213e+02  3.0000000000000000e+02  2.9955096272671244e+02  3.0000000000000000e+02  2.9951329284426907e+02  3.0000000000000000e+02  2.9948085557900748e+02  3.0000000000000000e+02  2.9945288468685663e+02  3.0000000000000000e+02  2.9942878341684155e+02  3.0000000000000000e+02  2.9940807721941400e+02  3.0000000000000000e+02  2.9939038356289728e+02  3.0000000000000000e+02  2.9937539178773511e+02  3.0000000000000000e+02  2.9936284917831887e+02  3.0000000000000000e+02  2.9987581042309824e+02  3.0000000000000000e+02  3.0000000000000000e+02  2.9999999999999994e+02  2.9978314002750153e+02  3.0000000000000000e+02  2.9970941855514280e+02  3.0000000000000000e+02  2.9964868292909370e+02  3.0000000000000000e+02  2.9959763042945877e+02  3.0000000000000000e+02  2.9955419880192807e+02  3.0000000000000000e+02  2.9951698381658457e+02  3.0000000000000000e+02  2.9948496912517214e+02  3.0000000000000000e+02  2.9945738691952920e+02  3.0000000000000000e+02  2.9943363948584619e+02  3.0000000000000000e+02  2.9941325181644561e+02  3.0000000000000000e+02  2.9939584132116090e+02  3.0000000000000000e+02  2.9938109757707969e+02  3.0000000000000000e+02  2.9936876830266300e+02  2.9935864938134125e+02  3.0000000000000000e+02  2.9987657559091940e+02  3.0000000000000000e+02  3.0000000000000000e+02  2.9999999999999994e+02  2.9978465690552252e+02  3.0000000000000000e+02  2.9971166741889851e+02  3.0000000000000000e+02  2.9965163768625649e+02  3.0000000000000000e+02  2.9960125921698784e+02  3.0000000000000000e+02  2.9955846488769600e+02  3.0000000000000000e+02  2.9952184661682162e+02  3.0000000000000000e+02  2.9949038522265892e+02  3.0000000000000000e+02  2.9946331100685597e+02  3.0000000000000000e+02  2.9944002518668935e+02  3.0000000000000000e+02  2.9942005236048362e+02  3.0000000000000000e+02  2.9940301006560344e+02  3.0000000000000000e+02  2.9938858838006240e+02  3.0000000000000000e+02  2.9937653576155458e+02  2.9936664895321178e+02  3.0000000000000000e+02  2.9987754319534451e+02  3.0000000000000000e+02  3.0000000000000000e+02  2.9999999999999994e+02  2.9978657477408120e+02  3.0000000000000000e+02  2.9971450973158568e+02  3.0000000000000000e+02  2.9965537018495507e+02  3.0000000000000000e+02  2.9960584013736928e+02  3.0000000000000000e+02  2.9956384627157740e+02  3.0000000000000000e+02  2.9952797574854861e+02  3.0000000000000000e+02  2.9949720603147102e+02  3.0000000000000000e+02  2.9947076533490144e+02  3.0000000000000000e+02  2.9944805386528458e+02  3.0000000000000000e+02  2.9942859607013014e+02  3.0000000000000000e+02  2.9941200997899557e+02  3.0000000000000000e+02  2.9939798660277938e+02  3.0000000000000000e+02  2.9938627559381439e+02  2.9937667499973639e+02  3.0000000000000000e+02  3.0000000000000000e+02  2.9987873537196685e+02  3.0000000000000000e+02  3.0000000000000000e+02  2.9999999999999994e+02  2.9978893719934717e+02  3.0000000000000000e+02  2.9971800914964274e+02  3.0000000000000000e+02  2.9965996234593564e+02  3.0000000000000000e+02  2.9961147124211260e+02  3.0000000000000000e+02  2.9957045487135650e+02  3.0000000000000000e+02  2.9953549475230335e+02  3.0000000000000000e+02  2.9950556460694963e+02  3.0000000000000000e+02  2.9947989057605258e+02  3.0000000000000000e+02  2.9945787216228308e+02  3.0000000000000000e+02  2.9943903416498989e+02  3.0000000000000000e+02  2.9942299572057624e+02  3.0000000000000000e+02  2.9940944943277066e+02  3.0000000000000000e+02  2.9939814680328902e+02  3.0000000000000000e+02  2.9938888779727881e+02  3.0000000000000000e+02  2.9988018118960434e+02  3.0000000000000000e+02  3.0000000000000000e+02  2.9999999999999994e+02  2.9979180128038689e+02  3.0000000000000000e+02  2.9972224884445137e+02  3.0000000000000000e+02  2.9966552078097635e+02  3.0000000000000000e+02  2.9961827956081106e+02  3.0000000000000000e+02  2.9957843498993958e+02  3.0000000000000000e+02  2.9954456215599009e+02  3.0000000000000000e+02  2.9951563090224920e+02  3.0000000000000000e+02  2.9949086564580711e+02  3.0000000000000000e+02  2.9946966586489265e+02  3.0000000000000000e+02  2.9945155758282635e+02  3.0000000000000000e+02  2.9943616199985928e+02  3.0000000000000000e+02  2.9942317427459466e+02  3.0000000000000000e+02  2.9941234866959695e+02  3.0000000000000000e+02  2.9940348789188869e+02  2.9939643532340784e+02  3.0000000000000000e+02  2.9988191875880960e+02  3.0000000000000000e+02  3.0000000000000000e+02  2.9999999999999994e+02  2.9979524168051722e+02  3.0000000000000000e+02  2.9972733712952299e+02  3.0000000000000000e+02  2.9967218362021521e+02  3.0000000000000000e+02  2.9962642873439813e+02  3.0000000000000000e+02  2.9958797141148256e+02  3.0000000000000000e+02  2.9955537976635270e+02  3.0000000000000000e+02  2.9952762006668297e+02  3.0000000000000000e+02  2.9950391588916614e+02  3.0000000000000000e+02  2.9948366791710481e+02  3.0000000000000000e+02  2.9946640478842608e+02  3.0000000000000000e+02  2.9945175118450715e+02  3.0000000000000000e+02  2.9943940617228753e+02  3.0000000000000000e+02  2.9942912800869033e+02  3.0000000000000000e+02  2.9942072322469232e+02  2.9941403866839926e+02  3.0000000000000000e+02  3.0000000000000000e+02  2.9988399839415717e+02  3.0000000000000000e+02  3.0000000000000000e+02  2.9999999999999994e+02  2.9979935662752104e+02  3.0000000000000000e+02  2.9973341574285882e+02  3.0000000000000000e+02  2.9968013042986649e+02  3.0000000000000000e+02  2.9963612995456327e+02  3.0000000000000000e+02  2.9959930085834827e+02  3.0000000000000000e+02  2.9956820427590782e+02  3.0000000000000000e+02  2.9954180396411493e+02  3.0000000000000000e+02  2.9951932437611293e+02  3.0000000000000000e+02  2.9950016943286164e+02  3.0000000000000000e+02  2.9948387249390152e+02  3.0000000000000000e+02  2.9947006374583947e+02  3.0000000000000000e+02  2.9945844801269322e+02  3.0000000000000000e+02  2.9944878917217579e+02  3.0000000000000000e+02  2.9944089896575008e+02  3.0000000000000000e+02  2.9943462885399964e+02  3.0000000000000000e+02  2.9988648748447218e+02  3.0000000000000000e+02  3.0000000000000000e+02  2.9999999999999994e+02  2.9980427706188050e+02  3.0000000000000000e+02  2.9974067229414101e+02  3.0000000000000000e+02  2.9968959687516235e+02  3.0000000000000000e+02  2.9964765787677436e+02  3.0000000000000000e+02  2.9961272841690601e+02  3.0000000000000000e+02  2.9958336370907108e+02  3.0000000000000000e+02  2.9955852735428942e+02  3.0000000000000000e+02  2.9953744768430062e+02  3.0000000000000000e+02  2.9951953504424927e+02  3.0000000000000000e+02  2.9950433059290924e+02  3.0000000000000000e+02  2.9949147282732548e+02  3.0000000000000000e+02  2.9948067478640695e+02  3.0000000000000000e+02  2.9947170805887731e+02  3.0000000000000000e+02  2.9946439132960319e+02  3.0000000000000000e+02  2.9945858207196022e+02  2.9945417049786334e+02  3.0000000000000000e+02  2.9988947826244924e+02  3.0000000000000000e+02  3.0000000000000000e+02  2.9999999999999994e+02  2.9981018103457711e+02  3.0000000000000000e+02  2.9974935949252057e+02  3.0000000000000000e+02  2.9970089691605489e+02  3.0000000000000000e+02  2.9966137425167238e+02  3.0000000000000000e+02  2.9962865154053048e+02  3.0000000000000000e+02  2.9960128116547145e+02  3.0000000000000000e