<?xml version="1.0"?>
<VTKFile type="UnstructuredGrid"  version="0.1"  >
<UnstructuredGrid>
<Piece  NumberOfPoints="18254" NumberOfCells="96440">
<Points>
<DataArray  type="Float64"  NumberOfComponents="3"  format="ascii">0 0 0  0.025 0 0  0.025 0.025 0  0.025 0.025 0.025  0.025 0 0.025  0 0 0.025  0 0.025 0  0 0.025 0.025  0.05 0 0  0.05 0.025 0  0.05 0.025 0.025  0.05 0 0.025  0.075 0 0  0.075 0.025 0  0.075 0.025 0.025  0.075 0 0.025  0.1 0 0  0.1 0.025 0  0.1 0.025 0.025  0.1 0 0.025  0.125 0 0  0.125 0.025 0  0.125 0.025 0.025  0.125 0 0.025  0.15 0 0  0.15 0.025 0  0.15 0.025 0.025  0.15 0 0.025  0.175 0 0.025  0.175 0.025 0.025  0.175 0.025 0  0.025 0.05 0  0.025 0.05 0.025  0 0.05 0  0 0.05 0.025  0.05 0.05 0  0.05 0.05 0.025  0.075 0.05 0  0.075 0.05 0.025  0.1 0.05 0  0.1 0.05 0.025  0.125 0.05 0  0.125 0.05 0.025  0.15 0.05 0  0.15 0.05 0.025  0.175 0.05 0  0.175 0.05 0.025  0.025 0.075 0  0.025 0.075 0.025  0 0.075 0  0 0.075 0.025  0.05 0.075 0  0.05 0.075 0.025  0.075 0.075 0  0.075 0.075 0.025  0.1 0.075 0  0.1 0.075 0.025  0.125 0.075 0  0.125 0.075 0.025  0.15 0.075 0  0.15 0.075 0.025  0.175 0.075 0  0.175 0.075 0.025  0.2 0.075 0.025  0.025 0.1 0  0.025 0.1 0.025  0 0.1 0  0 0.1 0.025  0.05 0.1 0  0.05 0.1 0.025  0.075 0.1 0  0.075 0.1 0.025  0.1 0.1 0  0.1 0.1 0.025  0.125 0.1 0  0.125 0.1 0.025  0.15 0.1 0  0.15 0.1 0.025  0.175 0.1 0  0.175 0.1 0.025  0.2 0.1 0.025  0.2 0.1 0  0.025 0.125 0  0.025 0.125 0.025  0 0.125 0  0 0.125 0.025  0.05 0.125 0  0.05 0.125 0.025  0.075 0.125 0  0.075 0.125 0.025  0.1 0.125 0  0.1 0.125 0.025  0.125 0.125 0  0.125 0.125 0.025  0.15 0.125 0  0.15 0.125 0.025  0.175 0.125 0  0.175 0.125 0.025  0.2 0.125 0  0.2 0.125 0.025  0.025 0.15 0  0.025 0.15 0.025  0 0.15 0  0 0.15 0.025  0.05 0.15 0  0.05 0.15 0.025  0.075 0.15 0  0.075 0.15 0.025  0.1 0.15 0  0.1 0.15 0.025  0.125 0.15 0  0.125 0.15 0.025  0.15 0.15 0  0.15 0.15 0.025  0.175 0.15 0  0.175 0.15 0.025  0.2 0.15 0  0.2 0.15 0.025  0.225 0.15 0  0.225 0.15 0.025  0.025 0.175 0  0.025 0.175 0.025  0 0.175 0  0 0.175 0.025  0.05 0.175 0  0.05 0.175 0.025  0.075 0.175 0  0.075 0.175 0.025  0.1 0.175 0  0.1 0.175 0.025  0.125 0.175 0  0.125 0.175 0.025  0.15 0.175 0  0.15 0.175 0.025  0.175 0.175 0  0.175 0.175 0.025  0.2 0.175 0  0.2 0.175 0.025  0.225 0.175 0  0.225 0.175 0.025  0.25 0.175 0.025  0.025 0.2 0  0.025 0.2 0.025  0 0.2 0  0 0.2 0.025  0.05 0.2 0  0.05 0.2 0.025  0.075 0.2 0  0.075 0.2 0.025  0.1 0.2 0  0.1 0.2 0.025  0.125 0.2 0  0.125 0.2 0.025  0.15 0.2 0  0.15 0.2 0.025  0.175 0.2 0  0.175 0.2 0.025  0.2 0.2 0  0.2 0.2 0.025  0.225 0.2 0  0.225 0.2 0.025  0.25 0.2 0.025  0.25 0.2 0  0.025 0.225 0  0.025 0.225 0.025  0 0.225 0  0 0.225 0.025  0.05 0.225 0  0.05 0.225 0.025  0.075 0.225 0  0.075 0.225 0.025  0.1 0.225 0  0.1 0.225 0.025  0.125 0.225 0  0.125 0.225 0.025  0.15 0.225 0  0.15 0.225 0.025  0.175 0.225 0  0.175 0.225 0.025  0.2 0.225 0  0.2 0.225 0.025  0.225 0.225 0  0.225 0.225 0.025  0.25 0.225 0  0.25 0.225 0.025  0.025 0.25 0  0.025 0.25 0.025  0 0.25 0  0 0.25 0.025  0.05 0.25 0  0.05 0.25 0.025  0.075 0.25 0  0.075 0.25 0.025  0.1 0.25 0  0.1 0.25 0.025  0.125 0.25 0  0.125 0.25 0.025  0.15 0.25 0  0.15 0.25 0.025  0.175 0.25 0  0.175 0.25 0.025  0.2 0.25 0  0.2 0.25 0.025  0.225 0.25 0  0.225 0.25 0.025  0.25 0.25 0  0.25 0.25 0.025  0.275 0.25 0.025  0.025 0.275 0  0.025 0.275 0.025  0 0.275 0  0 0.275 0.025  0.05 0.275 0  0.05 0.275 0.025  0.075 0.275 0  0.075 0.275 0.025  0.1 0.275 0  0.1 0.275 0.025  0.125 0.275 0  0.125 0.275 0.025  0.15 0.275 0  0.15 0.275 0.025  0.175 0.275 0  0.175 0.275 0.025  0.2 0.275 0  0.2 0.275 0.025  0.225 0.275 0  0.225 0.275 0.025  0.25 0.275 0  0.25 0.275 0.025  0.275 0.275 0.025  0.275 0.275 0  0.025 0.3 0  0.025 0.3 0.025  0 0.3 0  0 0.3 0.025  0.05 0.3 0  0.05 0.3 0.025  0.075 0.3 0  0.075 0.3 0.025  0.1 0.3 0  0.1 0.3 0.025  0.125 0.3 0  0.125 0.3 0.025  0.15 0.3 0  0.15 0.3 0.025  0.175 0.3 0  0.175 0.3 0.025  0.2 0.3 0  0.2 0.3 0.025  0.225 0.3 0  0.225 0.3 0.025  0.25 0.3 0  0.25 0.3 0.025  0.275 0.3 0  0.275 0.3 0.025  0.025 0.325 0  0.025 0.325 0.025  0 0.325 0  0 0.325 0.025  0.05 0.325 0  0.05 0.325 0.025  0.075 0.325 0  0.075 0.325 0.025  0.1 0.325 0  0.1 0.325 0.025  0.125 0.325 0  0.125 0.325 0.025  0.15 0.325 0  0.15 0.325 0.025  0.175 0.325 0  0.175 0.325 0.025  0.2 0.325 0  0.2 0.325 0.025  0.225 0.325 0  0.225 0.325 0.025  0.25 0.325 0  0.25 0.325 0.025  0.275 0.325 0  0.275 0.325 0.025  0.025 0.35 0  0.025 0.35 0.025  0 0.35 0  0 0.35 0.025  0.05 0.35 0  0.05 0.35 0.025  0.075 0.35 0  0.075 0.35 0.025  0.1 0.35 0  0.1 0.35 0.025  0.125 0.35 0  0.125 0.35 0.025  0.15 0.35 0  0.15 0.35 0.025  0.175 0.35 0  0.175 0.35 0.025  0.2 0.35 0  0.2 0.35 0.025  0.225 0.35 0  0.225 0.35 0.025  0.25 0.35 0  0.25 0.35 0.025  0.275 0.35 0  0.275 0.35 0.025  0.3 0.35 0.025  0.025 0.375 0  0.025 0.375 0.025  0 0.375 0  0 0.375 0.025  0.05 0.375 0  0.05 0.375 0.025  0.075 0.375 0  0.075 0.375 0.025  0.1 0.375 0  0.1 0.375 0.025  0.125 0.375 0  0.125 0.375 0.025  0.15 0.375 0  0.15 0.375 0.025  0.175 0.375 0  0.175 0.375 0.025  0.2 0.375 0  0.2 0.375 0.025  0.225 0.375 0  0.225 0.375 0.025  0.25 0.375 0  0.25 0.375 0.025  0.275 0.375 0  0.275 0.375 0.025  0.3 0.375 0.025  0.025 0.4 0  0.025 0.4 0.025  0 0.4 0  0 0.4 0.025  0.05 0.4 0  0.05 0.4 0.025  0.075 0.4 0  0.075 0.4 0.025  0.1 0.4 0  0.1 0.4 0.025  0.125 0.4 0  0.125 0.4 0.025  0.15 0.4 0  0.15 0.4 0.025  0.175 0.4 0  0.175 0.4 0.025  0.2 0.4 0  0.2 0.4 0.025  0.225 0.4 0  0.225 0.4 0.025  0.25 0.4 0  0.25 0.4 0.025  0.275 0.4 0  0.275 0.4 0.025  0.3 0.4 0.025  0.3 0.4 0  0.025 0.425 0  0.025 0.425 0.025  0 0.425 0  0 0.425 0.025  0.05 0.425 0  0.05 0.425 0.025  0.075 0.425 0  0.075 0.425 0.025  0.1 0.425 0  0.1 0.425 0.025  0.125 0.425 0  0.125 0.425 0.025  0.15 0.425 0  0.15 0.425 0.025  0.175 0.425 0  0.175 0.425 0.025  0.2 0.425 0  0.2 0.425 0.025  0.225 0.425 0  0.225 0.425 0.025  0.25 0.425 0  0.25 0.425 0.025  0.275 0.425 0  0.275 0.425 0.025  0.3 0.425 0  0.3 0.425 0.025  0.025 0.45 0  0.025 0.45 0.025  0 0.45 0  0 0.45 0.025  0.05 0.45 0  0.05 0.45 0.025  0.075 0.45 0  0.075 0.45 0.025  0.1 0.45 0  0.1 0.45 0.025  0.125 0.45 0  0.125 0.45 0.025  0.15 0.45 0  0.15 0.45 0.025  0.175 0.45 0  0.175 0.45 0.025  0.2 0.45 0  0.2 0.45 0.025  0.225 0.45 0  0.225 0.45 0.025  0.25 0.45 0  0.25 0.45 0.025  0.275 0.45 0  0.275 0.45 0.025  0.3 0.45 0  0.3 0.45 0.025  0.025 0.475 0  0.025 0.475 0.025  0 0.475 0  0 0.475 0.025  0.05 0.475 0  0.05 0.475 0.025  0.075 0.475 0  0.075 0.475 0.025  0.1 0.475 0  0.1 0.475 0.025  0.125 0.475 0  0.125 0.475 0.025  0.15 0.475 0  0.15 0.475 0.025  0.175 0.475 0  0.175 0.475 0.025  0.2 0.475 0  0.2 0.475 0.025  0.225 0.475 0  0.225 0.475 0.025  0.25 0.475 0  0.25 0.475 0.025  0.275 0.475 0  0.275 0.475 0.025  0.3 0.475 0  0.3 0.475 0.025  0.325 0.475 0.025  0.025 0.5 0  0.025 0.5 0.025  0 0.5 0  0 0.5 0.025  0.05 0.5 0  0.05 0.5 0.025  0.075 0.5 0  0.075 0.5 0.025  0.1 0.5 0  0.1 0.5 0.025  0.125 0.5 0  0.125 0.5 0.025  0.15 0.5 0  0.15 0.5 0.025  0.175 0.5 0  0.175 0.5 0.025  0.2 0.5 0  0.2 0.5 0.025  0.225 0.5 0  0.225 0.5 0.025  0.25 0.5 0  0.25 0.5 0.025  0.275 0.5 0  0.275 0.5 0.025  0.3 0.5 0  0.3 0.5 0.025  0.325 0.5 0.025  0.325 0.5 0  0.025 0.525 0  0.025 0.525 0.025  0 0.525 0  0 0.525 0.025  0.05 0.525 0  0.05 0.525 0.025  0.075 0.525 0  0.075 0.525 0.025  0.1 0.525 0  0.1 0.525 0.025  0.125 0.525 0  0.125 0.525 0.025  0.15 0.525 0  0.15 0.525 0.025  0.175 0.525 0  0.175 0.525 0.025  0.2 0.525 0  0.2 0.525 0.025  0.225 0.525 0  0.225 0.525 0.025  0.25 0.525 0  0.25 0.525 0.025  0.275 0.525 0  0.275 0.525 0.025  0.3 0.525 0  0.3 0.525 0.025  0.325 0.525 0  0.325 0.525 0.025  0.025 0.55 0  0.025 0.55 0.025  0 0.55 0  0 0.55 0.025  0.05 0.55 0  0.05 0.55 0.025  0.075 0.55 0  0.075 0.55 0.025  0.1 0.55 0  0.1 0.55 0.025  0.125 0.55 0  0.125 0.55 0.025  0.15 0.55 0  0.15 0.55 0.025  0.175 0.55 0  0.175 0.55 0.025  0.2 0.55 0  0.2 0.55 0.025  0.225 0.55 0  0.225 0.55 0.025  0.25 0.55 0  0.25 0.55 0.025  0.275 0.55 0  0.275 0.55 0.025  0.3 0.55 0  0.3 0.55 0.025  0.325 0.55 0  0.325 0.55 0.025  0.35 0.55 0  0.35 0.55 0.025  0.025 0.575 0  0.025 0.575 0.025  0 0.575 0  0 0.575 0.025  0.05 0.575 0  0.05 0.575 0.025  0.075 0.575 0  0.075 0.575 0.025  0.1 0.575 0  0.1 0.575 0.025  0.125 0.575 0  0.125 0.575 0.025  0.15 0.575 0  0.15 0.575 0.025  0.175 0.575 0  0.175 0.575 0.025  0.2 0.575 0  0.2 0.575 0.025  0.225 0.575 0  0.225 0.575 0.025  0.25 0.575 0  0.25 0.575 0.025  0.275 0.575 0  0.275 0.575 0.025  0.3 0.575 0  0.3 0.575 0.025  0.325 0.575 0  0.325 0.575 0.025  0.35 0.575 0  0.35 0.575 0.025  0.025 0.6 0  0.025 0.6 0.025  0 0.6 0  0 0.6 0.025  0.05 0.6 0  0.05 0.6 0.025  0.075 0.6 0  0.075 0.6 0.025  0.1 0.6 0  0.1 0.6 0.025  0.125 0.6 0  0.125 0.6 0.025  0.15 0.6 0  0.15 0.6 0.025  0.175 0.6 0  0.175 0.6 0.025  0.2 0.6 0  0.2 0.6 0.025  0.225 0.6 0  0.225 0.6 0.025  0.25 0.6 0  0.25 0.6 0.025  0.275 0.6 0  0.275 0.6 0.025  0.3 0.6 0  0.3 0.6 0.025  0.325 0.6 0  0.325 0.6 0.025  0.35 0.6 0  0.35 0.6 0.025  0.375 0.6 0.025  0.025 0.625 0  0.025 0.625 0.025  0 0.625 0  0 0.625 0.025  0.05 0.625 0  0.05 0.625 0.025  0.075 0.625 0  0.075 0.625 0.025  0.1 0.625 0  0.1 0.625 0.025  0.125 0.625 0  0.125 0.625 0.025  0.15 0.625 0  0.15 0.625 0.025  0.175 0.625 0  0.175 0.625 0.025  0.2 0.625 0  0.2 0.625 0.025  0.225 0.625 0  0.225 0.625 0.025  0.25 0.625 0  0.25 0.625 0.025  0.275 0.625 0  0.275 0.625 0.025  0.3 0.625 0  0.3 0.625 0.025  0.325 0.625 0  0.325 0.625 0.025  0.35 0.625 0  0.35 0.625 0.025  0.375 0.625 0.025  0.025 0.65 0  0.025 0.65 0.025  0 0.65 0  0 0.65 0.025  0.05 0.65 0  0.05 0.65 0.025  0.075 0.65 0  0.075 0.65 0.025  0.1 0.65 0  0.1 0.65 0.025  0.125 0.65 0  0.125 0.65 0.025  0.15 0.65 0  0.15 0.65 0.025  0.175 0.65 0  0.175 0.65 0.025  0.2 0.65 0  0.2 0.65 0.025  0.225 0.65 0  0.225 0.65 0.025  0.25 0.65 0  0.25 0.65 0.025  0.275 0.65 0  0.275 0.65 0.025  0.3 0.65 0  0.3 0.65 0.025  0.325 0.65 0  0.325 0.65 0.025  0.35 0.65 
[...]
<PointData  Scalars="f_11"> 
<DataArray  type="Float64"  Name="f_11"  format="ascii">3.0000000000000000e+02  3.0000000000000000e+02  3.0000000000000000e+02  2.9995647454357015e+02  3.0000000000000000e+02  3.0000000000000000e+02  3.0000000000000000e+02  3.0000000000000000e+02  3.0000000000000000e+02  3.0000000000000000e+02  2.9993391558637995e+02  3.0000000000000000e+02  3.0000000000000000e+02  3.0000000000000000e+02  2.9992000657943686e+02  3.0000000000000000e+02  3.0000000000000000e+02  3.0000000000000000e+02  2.9991041488644061e+02  3.0000000000000000e+02  3.0000000000000000e+02  3.0000000000000000e+02  2.9990332276534559e+02  3.0000000000000000e+02  3.0000000000000000e+02  3.0000000000000000e+02  2.9989784139938820e+02  3.0000000000000000e+02  3.0000000000000000e+02  2.9989347999643519e+02  3.0000000000000000e+02  3.0000000000000000e+02  2.9993388784142701e+02  3.0000000000000000e+02  3.0000000000000000e+02  2.9999999999999994e+02  2.9989491345566495e+02  2.9999999999999994e+02  2.9986924322072741e+02  2.9999999999999994e+02  2.9985094799600813e+02  2.9999999999999994e+02  2.9983718641857519e+02  2.9999999999999994e+02  2.9982644710318800e+02  2.9999999999999994e+02  2.9981785123502959e+02  3.0000000000000000e+02  2.9991992988841059e+02  3.0000000000000000e+02  3.0000000000000000e+02  2.9999999999999994e+02  2.9986917637353423e+02  3.0000000000000000e+02  2.9983408318643404e+02  3.0000000000000000e+02  2.9980830623038179e+02  3.0000000000000000e+02  2.9978855398575297e+02  3.0000000000000000e+02  2.9977295826267044e+02  3.0000000000000000e+02  2.9976037895791188e+02  2.9975007836983087e+02  3.0000000000000000e+02  2.9991027407651296e+02  3.0000000000000000e+02  3.0000000000000000e+02  2.9999999999999994e+02  2.9985078650679355e+02  3.0000000000000000e+02  2.9980819989687330e+02  3.0000000000000000e+02  2.9977613684278504e+02  3.0000000000000000e+02  2.9975114547134677e+02  3.0000000000000000e+02  2.9973117947164025e+02  3.0000000000000000e+02  2.9971494152781622e+02  2.9970156590955804e+02  3.0000000000000000e+02  3.0000000000000000e+02  2.9990310764543148e+02  3.0000000000000000e+02  3.0000000000000000e+02  2.9999999999999994e+02  2.9983691120628606e+02  3.0000000000000000e+02  2.9978831415242109e+02  3.0000000000000000e+02  2.9975100419856540e+02  3.0000000000000000e+02  2.9972149415068941e+02  3.0000000000000000e+02  2.9969766068693366e+02  3.0000000000000000e+02  2.9967812031556588e+02  3.0000000000000000e+02  2.9966192660924173e+02  3.0000000000000000e+02  2.9989754578974311e+02  3.0000000000000000e+02  3.0000000000000000e+02  2.9999999999999994e+02  2.9982604603247006e+02  3.0000000000000000e+02  2.9977256720677883e+02  3.0000000000000000e+02  2.9973087388751401e+02  3.0000000000000000e+02  2.9969749117118062e+02  3.0000000000000000e+02  2.9967027046893998e+02  3.0000000000000000e+02  2.9964778575946008e+02  3.0000000000000000e+02  2.9962904313825067e+02  3.0000000000000000e+02  2.9961332501732130e+02  3.0000000000000000e+02  2.9989310093106383e+02  3.0000000000000000e+02  3.0000000000000000e+02  2.9999999999999994e+02  2.9981731776455769e+02  3.0000000000000000e+02  2.9975982646824082e+02  3.0000000000000000e+02  2.9971445783224311e+02  3.0000000000000000e+02  2.9967776397867709e+02  3.0000000000000000e+02  2.9964759546902798e+02  3.0000000000000000e+02  2.9962250875634544e+02  3.0000000000000000e+02  2.9960148415928825e+02  3.0000000000000000e+02  2.9958377552977828e+02  2.9956882273261857e+02  3.0000000000000000e+02  2.9988947848147012e+02  3.0000000000000000e+02  3.0000000000000000e+02  2.9999999999999994e+02  2.9981018163072144e+02  3.0000000000000000e+02  2.9974936029800921e+02  3.0000000000000000e+02  2.9970089767792473e+02  3.0000000000000000e+02  2.9966137473243447e+02  3.0000000000000000e+02  2.9962865155514135e+02  3.0000000000000000e+02  2.9960128058843725e+02  3.0000000000000000e+02  2.9957822982905168e+02  3.0000000000000000e+02  2.9955873647947749e+02  2.9954222215125083e+02  3.0000000000000000e+02  3.0000000000000000e+02  2.9988648773990525e+02  3.0000000000000000e+02  3.0000000000000000e+02  2.9999999999999994e+02  2.9980427772618947e+02  3.0000000000000000e+02  2.9974067323139832e+02  3.0000000000000000e+02  2.9968959786071639e+02  3.0000000000000000e+02  2.9964765868666478e+02  3.0000000000000000e+02  2.9961272886566297e+02  3.0000000000000000e+02  2.9958336366140634e+02  3.0000000000000000e+02  2.9955852672387886e+02  3.0000000000000000e+02  2.9953744642691925e+02  3.0000000000000000e+02  2.9951953314914232e+02  3.0000000000000000e+02  2.9988399866989829e+02  3.0000000000000000e+02  3.0000000000000000e+02  2.9999999999999994e+02  2.9979935732239773e+02  3.0000000000000000e+02  2.9973341674712594e+02  3.0000000000000000e+02  2.9968013154737332e+02  3.0000000000000000e+02  2.9963613098019249e+02  3.0000000000000000e+02  2.9959930161393544e+02  3.0000000000000000e+02  2.9956820462417198e+02  3.0000000000000000e+02  2.9954180381070336e+02  3.0000000000000000e+02  2.9951932366563244e+02  3.0000000000000000e+02  2.9950016814234209e+02  2.9948387062562460e+02  3.0000000000000000e+02  2.9988191903975593e+02  3.0000000000000000e+02  3.0000000000000000e+02  2.9999999999999994e+02  2.9979524237314604e+02  3.0000000000000000e+02  2.9972733814562162e+02  3.0000000000000000e+02  2.9967218479089343e+02  3.0000000000000000e+02  2.9962642987607830e+02  3.0000000000000000e+02  2.9958797235853370e+02  3.0000000000000000e+02  2.9955538038559331e+02  3.0000000000000000e+02  2.9952762026146593e+02  3.0000000000000000e+02  2.9950391559765382e+02  3.0000000000000000e+02  2.9948366710762019e+02  2.9946640345365449e+02  3.0000000000000000e+02  3.0000000000000000e+02  2.9988018146182168e+02  3.0000000000000000e+02  3.0000000000000000e+02  2.9999999999999994e+02  2.9979180194202854e+02  3.0000000000000000e+02  2.9972224982526456e+02  3.0000000000000000e+02  2.9966552193759259e+02  3.0000000000000000e+02  2.9961828073230515e+02  3.0000000000000000e+02  2.9957843602658363e+02  3.0000000000000000e+02  2.9954456293324620e+02  3.0000000000000000e+02  2.9951563132591906e+02  3.0000000000000000e+02  2.9949086565189828e+02  3.0000000000000000e+02  2.9946966541653171e+02  3.0000000000000000e+02  2.9945155666574885e+02  3.0000000000000000e+02  2.9987873562284551e+02  3.0000000000000000e+02  3.0000000000000000e+02  2.9999999999999994e+02  2.9978893780494758e+02  3.0000000000000000e+02  2.9971801005503289e+02  3.0000000000000000e+02  2.9965996343149340e+02  3.0000000000000000e+02  2.9961147236978496e+02  3.0000000000000000e+02  2.9957045590939362e+02  3.0000000000000000e+02  2.9953549558809078e+02  3.0000000000000000e+02  2.9950556515250634e+02  3.0000000000000000e+02  2.9947989076892037e+02  3.0000000000000000e+02  2.9945787196364751e+02  3.0000000000000000e+02  2.9943903355629539e+02  3.0000000000000000e+02  2.9987754341372687e+02  3.0000000000000000e+02  3.0000000000000000e+02  2.9999999999999994e+02  2.9978657530205760e+02  3.0000000000000000e+02  2.9971451052764553e+02  3.0000000000000000e+02  2.9965537115162010e+02  3.0000000000000000e+02  2.9960584115921478e+02  3.0000000000000000e+02  2.9956384723604560e+02  3.0000000000000000e+02  2.9952797655725919e+02  3.0000000000000000e+02  2.9949720660556642e+02  3.0000000000000000e+02  2.9947076561650840e+02  3.0000000000000000e+02  2.9944805381651230e+02  3.0000000000000000e+02  2.9942859567061856e+02  2.9941200922273634e+02  3.0000000000000000e+02  2.9987657576719977e+02  3.0000000000000000e+02  3.0000000000000000e+02  2.9999999999999994e+02  2.9978465733764580e+02  3.0000000000000000e+02  2.9971166807743634e+02  3.0000000000000000e+02  2.9965163849451994e+02  3.0000000000000000e+02  2.9960126008173467e+02  3.0000000000000000e+02  2.9955846571622345e+02  3.0000000000000000e+02  2.9952184732657594e+02  3.0000000000000000e+02  2.9949038574609597e+02  3.0000000000000000e+02  2.9946331129313052e+02  3.0000000000000000e+02  2.9944002520125099e+02  3.0000000000000000e+02  2.9942005208337184e+02  2.9940300948902552e+02  3.0000000000000000e+02  2.9987581054929638e+02  3.0000000000000000e+02  3.0000000000000000e+02  2.9999999999999994e+02  2.9978314034883209e+02  3.0000000000000000e+02  2.9970941905332921e+02  3.0000000000000000e+02  2.9964868354714133e+02  3.0000000000000000e+02  2.9959763109581058e+02  3.0000000000000000e+02  2.9955419944406117e+02  3.0000000000000000e+02  2.9951698436884590e+02  3.0000000000000000e+02  2.9948496953294170e+02  3.0000000000000000e+02  2.9945738714088679e+02  3.0000000000000000e+02  2.9943363949154337e+02  3.0000000000000000e+02  2.9941325158878203e+02  2.9939584085221776e+02  3.0000000000000000e+02  3.0000000000000000e+02  2.9987523112899157e+02  3.0000000000000000e+02  3.0000000000000000e+02  2.9999999999999994e+02  2.9978199155494934e+02  3.0000000000000000e+02  2.9970771544597835e+02  3.0000000000000000e+02  2.9964644433866221e+02  3.0000000000000000e+02  2.9959487976934986e+02  3.0000000000000000e+02  2.9955096314330916e+02  3.0000000000000000e+02  2.9951329319338714e+02  3.0000000000000000e+02  2.9948085582010043e+02  3.0000000000000000e+02  2.9945288478834851e+02  3.0000000000000000e+02  2.9942878335630735e+02  3.0000000000000000e+02  2.9940807698290308e+02  3.0000000000000000e+02  2.9939038314373181e+02  3.0000000000000000e+02  2.9987482540268832e+02  3.0000000000000000e+02  3.0000000000000000e+02  2.9999999999999994e+02  2.9978118707329253e+02  3.0000000000000000e+02  2.9970652221697145e+02  3.0000000000000000e+02  2.9964487553913006e+02  3.0000000000000000e+02  2.9959295151416524e+02  3.0000000000000000e+02  2.9954869409463311e+02  3.0000000000000000e+02  2.9951070410061510e+02  3.0000000000000000e+02  2.9947796904423433e+02  3.0000000000000000e+02  2.9944972384723036e+02  3.0000000000000000e+02  2.9942537251538704e+02  3.0000000000000000e+02  2.9940444090666364e+02  3.0000000000000000e+02  2.9938654661504194e+02  3.0000000000000000e+02  2.9987458513757184e+02  3.0000000000000000e+02  3.0000000000000000e+02  2.9999999999999994e+02  2.9978071064659105e+02  3.0000000000000000e+02  2.9970581548601035e+02  3.0000000000000000e+02  2.9964394620460473e+02  3.0000000000000000e+02  2.9959180899630928e+02  3.0000000000000000e+02  2.9954734931513906e+02  3.0000000000000000e+02  2.9950916922264292e+02  3.0000000000000000e+02  2.9947625720116054e+02  3.0000000000000000e+02  2.9944784888103641e+02  3.0000000000000000e+02  2.9942334873912046e+02  3.0000000000000000e+02  2.9940228290014204e+02  3.0000000000000000e+02  2.9938426905856812e+02  2.9936899644088874e+02  3.0000000000000000e+02  2.9987450555053215e+02  3.0000000000000000e+02  3.0000000000000000e+02  2.9999999999999994e+02  2.9978055282506995e+02  3.0000000000000000e+02  2.9970558136148264e+02  3.0000000000000000e+02  2.9964363831598229e+02  3.0000000000000000e+02  2.9959143044945830e+02  3.0000000000000000e+02  2.9954690371191606e+02  3.0000000000000000e+02  2.9950866057627974e+02  3.0000000000000000e+02  2.9947568984784181e+02  3.0000000000000000e+02  2.9944722739440925e+02  3.0000000000000000e+02  2.9942267785243143e+02  3.0000000000000000e+02  2.9940156743903265e+02  3.0000000000000000e+02  2.9938351388614564e+02  2.9936820641554885e+02  3.0000000000000000e+02  3.0000000000000000e+02  2.9987458507299471e+02  3.0000000000000000e+02  3.0000000000000000e+02  2.9999999999999994e+02  2.9978071050894863e+02  3.0000000000000000e+02  2.9970581528483496e+02  3.0000000000000000e+02  2.9964394595739384e+02  3.0000000000000000e+02  2.9959180872341017e+02  3.0000000000000000e+02  2.9954734903679224e+02  3.0000000000000000e+02  2.9950916895722168e+02  3.0000000000000000e+02  2.9947625696419573e+02  3.0000000000000000e+02  2.9944784868479752e+02  3.0000000000000000e+02  2.9942334859259029e+02  3.0000000000000000e+02  2.9940228280926334e+02  3.0000000000000000e+02  2.9938426902666004e+02  3.0000000000000000e+02  2.9936899646915646e+02  3.0000000000000000e+02  2.9987482527528465e+02  3.0000000000000000e+02  3.0000000000000000e+02  2.9999999999999994e+02  2.9978118680119366e+02  3.0000000000000000e+02  2.9970652181932667e+02  3.0000000000000000e+02  2.9964487505110748e+02  3.0000000000000000e+02  2.9959295097657690e+02  3.0000000000000000e+02  2.9954869354795960e+02  3.0000000000000000e+02  2.9951070358147410e+02  3.0000000000000000e+02  2.9947796858344770e+02  3.0000000000000000e+02  2.9944972346901801e+02  3.0000000000000000e+02  2.9942537223735320e+02  3.0000000000000000e+02  2.9940444074032195e+02  3.0000000000000000e+02  2.9938654656667370e+02  3.0000000000000000e+02  2.9937137896525155e+02  3.0000000000000000e+02  2.9935868498256440e+02  3.0000000000000000e+02  2.9987523094225463e+02  3.0000000000000000e+02  3.0000000000000000e+02  2.9999999999999994e+02  2.9978199115476644e+02  3.0000000000000000e+02  2.9970771486130496e+02  3.0000000000000000e+02  2.9964644362269377e+02  3.0000000000000000e+02  2.9959487898359401e+02  3.0000000000000000e+02  2.9955096234847122e+02  3.0000000000000000e+02  2.9951329244405048e+02  3.0000000000000000e+02  2.9948085516187717e+02  3.0000000000000000e+02  2.9945288425675460e+02  3.0000000000000000e+02  2.9942878297683552e+02  3.0000000000000000e+02  2.9940807677189184e+02  3.0000000000000000e+02  2.9939038310971415e+02  3.0000000000000000e+02  2.9937539133032720e+02  3.0000000000000000e+02  2.9936284871779520e+02  3.0000000000000000e+02  2.9987581030844291e+02  3.0000000000000000e+02  3.0000000000000000e+02  2.9999999999999994e+02  2.9978313983012725e+02  3.0000000000000000e+02  2.9970941829586752e+02  3.0000000000000000e+02  2.9964868262270170e+02  3.0000000000000000e+02  2.9959763008692914e+02  3.0000000000000000e+02  2.9955419843160655e+02  3.0000000000000000e+02  2.9951698342489539e+02  3.0000000000000000e+02  2.9948496871709381e+02  3.0000000000000000e+02  2.9945738649893150e+02  3.0000000000000000e+02  2.9943363905573904e+02  3.0000000000000000e+02  2.9941325137916732e+02  3.0000000000000000e+02  2.9939584087852256e+02  3.0000000000000000e+02  2.9938109713047811e+02  3.0000000000000000e+02  2.9936876785316940e+02  2.9935864892977293e+02  3.0000000000000000e+02  2.9987657547914210e+02  3.0000000000000000e+02  3.0000000000000000e+02  2.9999999999999994e+02  2.9978465671317616e+02  3.0000000000000000e+02  2.9971166716632979e+02  3.0000000000000000e+02  2.9965163738791836e+02  3.0000000000000000e+02  2.9960125888361608e+02  3.0000000000000000e+02  2.9955846452745305e+02  3.0000000000000000e+02  2.9952184623599067e+02  3.0000000000000000e+02  2.9949038482610746e+02  3.0000000000000000e+02  2.9946331059836422e+02  3.0000000000000000e+02  2.9944002476919292e+02  3.0000000000000000e+02  2.9942005193625715e+02  3.0000000000000000e+02  2.9940300963640198e+02  3.0000000000000000e+02  2.9938858794723194e+02  3.0000000000000000e+02  2.9937653532611819e+02  2.9936664851594105e+02  3.0000000000000000e+02  2.9987754308703040e+02  3.0000000000000000e+02  3.0000000000000000e+02  2.9999999999999994e+02  2.9978657458778940e+02  3.0000000000000000e+02  2.9971450948709804e+02  3.0000000000000000e+02  2.9965536989632744e+02  3.0000000000000000e+02  2.9960583981504527e+02  3.0000000000000000e+02  2.9956384592349906e+02  3.0000000000000000e+02  2.9952797538082905e+02  3.0000000000000000e+02  2.9949720564884342e+02  3.0000000000000000e+02  2.9947076494103749e+02  3.0000000000000000e+02  2.9944805346302979e+02  3.0000000000000000e+02  2.9942859566168164e+02  3.0000000000000000e+02  2.9941200956604007e+02  3.0000000000000000e+02  2.9939798618659989e+02  3.0000000000000000e+02  2.9938627517537623e+02  2.9937667457975465e+02  3.0000000000000000e+02  3.0000000000000000e+02  2.9987873526766947e+02  3.0000000000000000e+02  3.0000000000000000e+02  2.9999999999999994e+02  2.9978893702008429e+02  3.0000000000000000e+02  2.9971800891454444e+02  3.0000000000000000e+02  2.9965996206859887e+02  3.0000000000000000e+02  2.9961147093264361e+02  3.0000000000000000e+02  2.9957045453744155e+02  3.0000000000000000e+02  2.9953549439985784e+02  3.0000000000000000e+02  2.9950556424055003e+02  3.0000000000000000e+02  2.9947989019924324e+02  3.0000000000000000e+02  2.9945787177780312e+02  3.0000000000000000e+02  2.9943903377494536e+02  3.0000000000000000e+02  2.9942299532657262e+02  3.0000000000000000e+02  2.9940944903601707e+02  3.0000000000000000e+02  2.9939814640468165e+02  3.0000000000000000e+02  2.9938888739746710e+02  3.0000000000000000e+02  2.9988018108984051e+02  3.0000000000000000e+02  3.0000000000000000e+02  2.9999999999999994e+02  2.9979180110906742e+02  3.0000000000000000e+02  2.9972224861997512e+02  3.0000000000000000e+02  2.9966552051642498e+02  3.0000000000000000e+02  2.9961827926591036e+02  3.0000000000000000e+02  2.9957843467208755e+02  3.0000000000000000e+02  2.9954456182087750e+02  3.0000000000000000e+02  2.9951563055427391e+02  3.0000000000000000e+02  2.9949086528836750e+02  3.0000000000000000e+02  2.9946966550060580e+02  3.0000000000000000e+02  2.9945155721369247e+02  3.0000000000000000e+02  2.9943616162739050e+02  3.0000000000000000e+02  2.9942317389991484e+02  3.0000000000000000e+02  2.9941234829352283e+02  3.0000000000000000e+02  2.9940348751499414e+02  2.9939643494607787e+02  3.0000000000000000e+02  2.9988191866405651e+02  3.0000000000000000e+02  3.0000000000000000e+02  2.9999999999999994e+02  2.9979524151798944e+02  3.0000000000000000e+02  2.9972733691681833e+02  3.0000000000000000e+02  2.9967218336984854e+02  3.0000000000000000e+02  2.9962642845567603e+02  3.0000000000000000e+02  2.9958797111148300e+02  3.0000000000000000e+02  2.9955537945051634e+02  3.0000000000000000e+02  2.9952761973920730e+02  3.0000000000000000e+02  2.9950391555328525e+02  3.0000000000000000e+02  2.9948366757529709e+02  3.0000000000000000e+02  2.9946640444257213e+02  3.0000000000000000e+02  2.9945175083601225e+02  3.0000000000000000e+02  2.9943940582217931e+02  3.0000000000000000e+02  2.9942912765769569e+02  3.0000000000000000e+02  2.9942072287330075e+02  2.9941403831691412e+02  3.0000000000000000e+02  3.0000000000000000e+02  2.9988399830484826e+02  3.0000000000000000e+02  3.0000000000000000e+02  2.9999999999999994e+02  2.9979935647456352e+02  3.0000000000000000e+02  2.9973341554298798e+02  3.0000000000000000e+02  2.9968013019498511e+02  3.0000000000000000e+02  2.9963612969352215e+02  3.0000000000000000e+02  2.9959930057787540e+02  3.0000000000000000e+02  2.9956820398116815e+02  3.0000000000000000e+02  2.9954180365908360e+02  3.0000000000000000e+02  2.9951932406384060e+02  3.0000000000000000e+02  2.9950016911567110e+02  3.0000000000000000e+02  2.9948387217353877e+02  3.0000000000000000e+02  2.9947006342359089e+02  3.0000000000000000e+02  2.9945844768947842e+02  3.0000000000000000e+02  2.9944878884862260e+02  3.0000000000000000e+02  2.9944089864225430e+02  3.0000000000000000e+02  2.9943462853077665e+02  3.0000000000000000e+02  2.9988648740099688e+02  3.0000000000000000e+02  3.0000000000000000e+02  2.9999999999999994e+02  2.9980427691920102e+02  3.0000000000000000e+02  2.9974067210807954e+02  3.0000000000000000e+02  2.9968959665696849e+02  3.0000000000000000e+02  2.9964765763480870e+02  3.0000000000000000e+02  2.9961272815751710e+02  3.0000000000000000e+02  2.9958336343712165e+02  3.0000000000000000e+02  2.9955852707350931e+02  3.0000000000000000e+02  2.9953744739753603e+02  3.0000000000000000e+02  2.9951953475365025e+02  3.0000000000000000e+02  2.9950433030007213e+02  3.0000000000000000e+02  2.9949147253340459e+02  3.0000000000000000e+02  2.9948067449220349e+02  3.0000000000000000e+02  2.9947170776491038e+02  3.0000000000000000e+02  2.9946439103616871e+02  3.0000000000000000e+02  2.9945858177917927e+02  2.9945417020572313e+02  3.0000000000000000e+02  2.9988947818515481e+02  3.0000000000000000e+02  3.0000000000000000e+02  2.9999999999999994e+02  2.9981018090281913e+02  3.0000000000000000e+02  2.9974935932116574e+02  3.0000000000000000e+02  2.9970089671566222e+02  3.0000000000000000e+02  2.9966137403007826e+02  3.0000000000000000e+02  2.9962865130367180e+02  3.0000000000000000e+02  2.9960128091788090e+02  3.0000000000000000e