<?xml version="1.0"?>
<VTKFile type="UnstructuredGrid"  version="0.1"  >
<UnstructuredGrid>
<Piece  NumberOfPoints="17996" NumberOfCells="95562">
<Points>
<DataArray  type="Float64"  NumberOfComponents="3"  format="ascii">0.15 0 0  0.175 0 0  0.175 0.025 0  0.175 0.025 0.025  0.175 0 0.025  0.2 0 0  0.2 0.025 0  0.2 0.025 0.025  0.2 0 0.025  0.225 0 0  0.225 0.025 0  0.225 0.025 0.025  0.225 0 0.025  0.25 0 0  0.25 0.025 0  0.25 0.025 0.025  0.25 0 0.025  0.275 0 0  0.275 0.025 0  0.275 0.025 0.025  0.275 0 0.025  0.3 0 0  0.3 0.025 0  0.3 0.025 0.025  0.3 0 0.025  0.325 0 0  0.325 0.025 0  0.325 0.025 0.025  0.325 0 0.025  0.35 0 0  0.35 0.025 0  0.35 0.025 0.025  0.35 0 0.025  0.375 0 0  0.375 0.025 0  0.375 0.025 0.025  0.375 0 0.025  0.4 0 0  0.4 0.025 0  0.4 0.025 0.025  0.4 0 0.025  0.425 0 0  0.425 0.025 0  0.425 0.025 0.025  0.425 0 0.025  0.45 0 0  0.45 0.025 0  0.45 0.025 0.025  0.45 0 0.025  0.475 0 0  0.475 0.025 0  0.475 0.025 0.025  0.475 0 0.025  0.5 0 0  0.5 0.025 0  0.5 0.025 0.025  0.5 0 0.025  0.525 0 0  0.525 0.025 0  0.525 0.025 0.025  0.525 0 0.025  0.55 0 0.025  0.55 0.025 0.025  0.55 0.025 0  0.2 0.05 0  0.2 0.05 0.025  0.175 0.05 0  0.175 0.05 0.025  0.225 0.05 0  0.225 0.05 0.025  0.25 0.05 0  0.25 0.05 0.025  0.275 0.05 0  0.275 0.05 0.025  0.3 0.05 0  0.3 0.05 0.025  0.325 0.05 0  0.325 0.05 0.025  0.35 0.05 0  0.35 0.05 0.025  0.375 0.05 0  0.375 0.05 0.025  0.4 0.05 0  0.4 0.05 0.025  0.425 0.05 0  0.425 0.05 0.025  0.45 0.05 0  0.45 0.05 0.025  0.475 0.05 0  0.475 0.05 0.025  0.5 0.05 0  0.5 0.05 0.025  0.525 0.05 0  0.525 0.05 0.025  0.55 0.05 0  0.55 0.05 0.025  0.575 0.025 0  0.575 0.05 0  0.575 0.05 0.025  0.575 0.025 0.025  0.6 0.05 0  0.6 0.05 0.025  0.2 0.075 0  0.2 0.075 0.025  0.175 0.075 0  0.225 0.075 0  0.225 0.075 0.025  0.25 0.075 0  0.25 0.075 0.025  0.275 0.075 0  0.275 0.075 0.025  0.3 0.075 0  0.3 0.075 0.025  0.325 0.075 0  0.325 0.075 0.025  0.35 0.075 0  0.35 0.075 0.025  0.375 0.075 0  0.375 0.075 0.025  0.4 0.075 0  0.4 0.075 0.025  0.425 0.075 0  0.425 0.075 0.025  0.45 0.075 0  0.45 0.075 0.025  0.475 0.075 0  0.475 0.075 0.025  0.5 0.075 0  0.5 0.075 0.025  0.525 0.075 0  0.525 0.075 0.025  0.55 0.075 0  0.55 0.075 0.025  0.575 0.075 0  0.575 0.075 0.025  0.6 0.075 0  0.6 0.075 0.025  0.625 0.05 0  0.625 0.075 0  0.625 0.075 0.025  0.625 0.05 0.025  0.65 0.075 0  0.65 0.075 0.025  0.2 0.1 0  0.2 0.1 0.025  0.225 0.1 0  0.225 0.1 0.025  0.25 0.1 0  0.25 0.1 0.025  0.275 0.1 0  0.275 0.1 0.025  0.3 0.1 0  0.3 0.1 0.025  0.325 0.1 0  0.325 0.1 0.025  0.35 0.1 0  0.35 0.1 0.025  0.375 0.1 0  0.375 0.1 0.025  0.4 0.1 0  0.4 0.1 0.025  0.425 0.1 0  0.425 0.1 0.025  0.45 0.1 0  0.45 0.1 0.025  0.475 0.1 0  0.475 0.1 0.025  0.5 0.1 0  0.5 0.1 0.025  0.525 0.1 0  0.525 0.1 0.025  0.55 0.1 0  0.55 0.1 0.025  0.575 0.1 0  0.575 0.1 0.025  0.6 0.1 0  0.6 0.1 0.025  0.625 0.1 0  0.625 0.1 0.025  0.65 0.1 0  0.65 0.1 0.025  0.675 0.075 0  0.675 0.1 0  0.675 0.1 0.025  0.7 0.1 0  0.7 0.1 0.025  0.225 0.125 0  0.225 0.125 0.025  0.2 0.125 0  0.2 0.125 0.025  0.25 0.125 0  0.25 0.125 0.025  0.275 0.125 0  0.275 0.125 0.025  0.3 0.125 0  0.3 0.125 0.025  0.325 0.125 0  0.325 0.125 0.025  0.35 0.125 0  0.35 0.125 0.025  0.375 0.125 0  0.375 0.125 0.025  0.4 0.125 0  0.4 0.125 0.025  0.425 0.125 0  0.425 0.125 0.025  0.45 0.125 0  0.45 0.125 0.025  0.475 0.125 0  0.475 0.125 0.025  0.5 0.125 0  0.5 0.125 0.025  0.525 0.125 0  0.525 0.125 0.025  0.55 0.125 0  0.55 0.125 0.025  0.575 0.125 0  0.575 0.125 0.025  0.6 0.125 0  0.6 0.125 0.025  0.625 0.125 0  0.625 0.125 0.025  0.65 0.125 0  0.65 0.125 0.025  0.675 0.125 0  0.675 0.125 0.025  0.7 0.125 0  0.7 0.125 0.025  0.725 0.1 0  0.725 0.125 0  0.725 0.125 0.025  0.75 0.125 0  0.75 0.125 0.025  0.225 0.15 0  0.225 0.15 0.025  0.25 0.15 0  0.25 0.15 0.025  0.275 0.15 0  0.275 0.15 0.025  0.3 0.15 0  0.3 0.15 0.025  0.325 0.15 0  0.325 0.15 0.025  0.35 0.15 0  0.35 0.15 0.025  0.375 0.15 0  0.375 0.15 0.025  0.4 0.15 0  0.4 0.15 0.025  0.425 0.15 0  0.425 0.15 0.025  0.45 0.15 0  0.45 0.15 0.025  0.475 0.15 0  0.475 0.15 0.025  0.5 0.15 0  0.5 0.15 0.025  0.525 0.15 0  0.525 0.15 0.025  0.55 0.15 0  0.55 0.15 0.025  0.575 0.15 0  0.575 0.15 0.025  0.6 0.15 0  0.6 0.15 0.025  0.625 0.15 0  0.625 0.15 0.025  0.65 0.15 0  0.65 0.15 0.025  0.675 0.15 0  0.675 0.15 0.025  0.7 0.15 0  0.7 0.15 0.025  0.725 0.15 0  0.725 0.15 0.025  0.75 0.15 0  0.75 0.15 0.025  0.775 0.125 0  0.775 0.15 0  0.775 0.15 0.025  0.775 0.125 0.025  0.8 0.125 0  0.8 0.15 0  0.8 0.15 0.025  0.825 0.15 0  0.825 0.15 0.025  0.25 0.175 0  0.25 0.175 0.025  0.225 0.175 0  0.275 0.175 0  0.275 0.175 0.025  0.3 0.175 0  0.3 0.175 0.025  0.325 0.175 0  0.325 0.175 0.025  0.35 0.175 0  0.35 0.175 0.025  0.375 0.175 0  0.375 0.175 0.025  0.4 0.175 0  0.4 0.175 0.025  0.425 0.175 0  0.425 0.175 0.025  0.45 0.175 0  0.45 0.175 0.025  0.475 0.175 0  0.475 0.175 0.025  0.5 0.175 0  0.5 0.175 0.025  0.525 0.175 0  0.525 0.175 0.025  0.55 0.175 0  0.55 0.175 0.025  0.575 0.175 0  0.575 0.175 0.025  0.6 0.175 0  0.6 0.175 0.025  0.625 0.175 0  0.625 0.175 0.025  0.65 0.175 0  0.65 0.175 0.025  0.675 0.175 0  0.675 0.175 0.025  0.7 0.175 0  0.7 0.175 0.025  0.725 0.175 0  0.725 0.175 0.025  0.75 0.175 0  0.75 0.175 0.025  0.775 0.175 0  0.775 0.175 0.025  0.8 0.175 0  0.8 0.175 0.025  0.825 0.175 0  0.825 0.175 0.025  0.85 0.15 0  0.85 0.175 0  0.85 0.175 0.025  0.875 0.175 0  0.875 0.175 0.025  0.25 0.2 0  0.25 0.2 0.025  0.275 0.2 0  0.275 0.2 0.025  0.3 0.2 0  0.3 0.2 0.025  0.325 0.2 0  0.325 0.2 0.025  0.35 0.2 0  0.35 0.2 0.025  0.375 0.2 0  0.375 0.2 0.025  0.4 0.2 0  0.4 0.2 0.025  0.425 0.2 0  0.425 0.2 0.025  0.45 0.2 0  0.45 0.2 0.025  0.475 0.2 0  0.475 0.2 0.025  0.5 0.2 0  0.5 0.2 0.025  0.525 0.2 0  0.525 0.2 0.025  0.55 0.2 0  0.55 0.2 0.025  0.575 0.2 0  0.575 0.2 0.025  0.6 0.2 0  0.6 0.2 0.025  0.625 0.2 0  0.625 0.2 0.025  0.65 0.2 0  0.65 0.2 0.025  0.675 0.2 0  0.675 0.2 0.025  0.7 0.2 0  0.7 0.2 0.025  0.725 0.2 0  0.725 0.2 0.025  0.75 0.2 0  0.75 0.2 0.025  0.775 0.2 0  0.775 0.2 0.025  0.8 0.2 0  0.8 0.2 0.025  0.825 0.2 0  0.825 0.2 0.025  0.85 0.2 0  0.85 0.2 0.025  0.875 0.2 0  0.875 0.2 0.025  0.9 0.175 0  0.9 0.2 0  0.9 0.2 0.025  0.925 0.175 0  0.925 0.2 0  0.925 0.2 0.025  0.95 0.2 0  0.95 0.2 0.025  0.275 0.225 0  0.275 0.225 0.025  0.25 0.225 0  0.25 0.225 0.025  0.3 0.225 0  0.3 0.225 0.025  0.325 0.225 0  0.325 0.225 0.025  0.35 0.225 0  0.35 0.225 0.025  0.375 0.225 0  0.375 0.225 0.025  0.4 0.225 0  0.4 0.225 0.025  0.425 0.225 0  0.425 0.225 0.025  0.45 0.225 0  0.45 0.225 0.025  0.475 0.225 0  0.475 0.225 0.025  0.5 0.225 0  0.5 0.225 0.025  0.525 0.225 0  0.525 0.225 0.025  0.55 0.225 0  0.55 0.225 0.025  0.575 0.225 0  0.575 0.225 0.025  0.6 0.225 0  0.6 0.225 0.025  0.625 0.225 0  0.625 0.225 0.025  0.65 0.225 0  0.65 0.225 0.025  0.675 0.225 0  0.675 0.225 0.025  0.7 0.225 0  0.7 0.225 0.025  0.725 0.225 0  0.725 0.225 0.025  0.75 0.225 0  0.75 0.225 0.025  0.775 0.225 0  0.775 0.225 0.025  0.8 0.225 0  0.8 0.225 0.025  0.825 0.225 0  0.825 0.225 0.025  0.85 0.225 0  0.85 0.225 0.025  0.875 0.225 0  0.875 0.225 0.025  0.9 0.225 0  0.9 0.225 0.025  0.925 0.225 0  0.925 0.225 0.025  0.95 0.225 0  0.95 0.225 0.025  0.975 0.2 0  0.975 0.225 0  0.975 0.225 0.025  1 0.2 0  1 0.225 0  1 0.225 0.025  0.275 0.25 0  0.275 0.25 0.025  0.25 0.25 0  0.3 0.25 0  0.3 0.25 0.025  0.325 0.25 0  0.325 0.25 0.025  0.35 0.25 0  0.35 0.25 0.025  0.375 0.25 0  0.375 0.25 0.025  0.4 0.25 0  0.4 0.25 0.025  0.425 0.25 0  0.425 0.25 0.025  0.45 0.25 0  0.45 0.25 0.025  0.475 0.25 0  0.475 0.25 0.025  0.5 0.25 0  0.5 0.25 0.025  0.525 0.25 0  0.525 0.25 0.025  0.55 0.25 0  0.55 0.25 0.025  0.575 0.25 0  0.575 0.25 0.025  0.6 0.25 0  0.6 0.25 0.025  0.625 0.25 0  0.625 0.25 0.025  0.65 0.25 0  0.65 0.25 0.025  0.675 0.25 0  0.675 0.25 0.025  0.7 0.25 0  0.7 0.25 0.025  0.725 0.25 0  0.725 0.25 0.025  0.75 0.25 0  0.75 0.25 0.025  0.775 0.25 0  0.775 0.25 0.025  0.8 0.25 0  0.8 0.25 0.025  0.825 0.25 0  0.825 0.25 0.025  0.85 0.25 0  0.85 0.25 0.025  0.875 0.25 0  0.875 0.25 0.025  0.9 0.25 0  0.9 0.25 0.025  0.925 0.25 0  0.925 0.25 0.025  0.95 0.25 0  0.95 0.25 0.025  0.975 0.25 0  0.975 0.25 0.025  1 0.25 0  1 0.25 0.025  0.275 0.275 0  0.275 0.275 0.025  0.3 0.275 0  0.3 0.275 0.025  0.325 0.275 0  0.325 0.275 0.025  0.35 0.275 0  0.35 0.275 0.025  0.375 0.275 0  0.375 0.275 0.025  0.4 0.275 0  0.4 0.275 0.025  0.425 0.275 0  0.425 0.275 0.025  0.45 0.275 0  0.45 0.275 0.025  0.475 0.275 0  0.475 0.275 0.025  0.5 0.275 0  0.5 0.275 0.025  0.525 0.275 0  0.525 0.275 0.025  0.55 0.275 0  0.55 0.275 0.025  0.575 0.275 0  0.575 0.275 0.025  0.6 0.275 0  0.6 0.275 0.025  0.625 0.275 0  0.625 0.275 0.025  0.65 0.275 0  0.65 0.275 0.025  0.675 0.275 0  0.675 0.275 0.025  0.7 0.275 0  0.7 0.275 0.025  0.725 0.275 0  0.725 0.275 0.025  0.75 0.275 0  0.75 0.275 0.025  0.775 0.275 0  0.775 0.275 0.025  0.8 0.275 0  0.8 0.275 0.025  0.825 0.275 0  0.825 0.275 0.025  0.85 0.275 0  0.85 0.275 0.025  0.875 0.275 0  0.875 0.275 0.025  0.9 0.275 0  0.9 0.275 0.025  0.925 0.275 0  0.925 0.275 0.025  0.95 0.275 0  0.95 0.275 0.025  0.975 0.275 0  0.975 0.275 0.025  1 0.275 0  1 0.275 0.025  0.3 0.3 0  0.3 0.3 0.025  0.275 0.3 0  0.275 0.3 0.025  0.325 0.3 0  0.325 0.3 0.025  0.35 0.3 0  0.35 0.3 0.025  0.375 0.3 0  0.375 0.3 0.025  0.4 0.3 0  0.4 0.3 0.025  0.425 0.3 0  0.425 0.3 0.025  0.45 0.3 0  0.45 0.3 0.025  0.475 0.3 0  0.475 0.3 0.025  0.5 0.3 0  0.5 0.3 0.025  0.525 0.3 0  0.525 0.3 0.025  0.55 0.3 0  0.55 0.3 0.025  0.575 0.3 0  0.575 0.3 0.025  0.6 0.3 0  0.6 0.3 0.025  0.625 0.3 0  0.625 0.3 0.025  0.65 0.3 0  0.65 0.3 0.025  0.675 0.3 0  0.675 0.3 0.025  0.7 0.3 0  0.7 0.3 0.025  0.725 0.3 0  0.725 0.3 0.025  0.75 0.3 0  0.75 0.3 0.025  0.775 0.3 0  0.775 0.3 0.025  0.8 0.3 0  0.8 0.3 0.025  0.825 0.3 0  0.825 0.3 0.025  0.85 0.3 0  0.85 0.3 0.025  0.875 0.3 0  0.875 0.3 0.025  0.9 0.3 0  0.9 0.3 0.025  0.925 0.3 0  0.925 0.3 0.025  0.95 0.3 0  0.95 0.3 0.02
[...]
<PointData  Scalars="f_11"> 
<DataArray  type="Float64"  Name="f_11"  format="ascii">3.0000000000000000e+02  3.0000000000000000e+02  3.0000000000000000e+02  2.9989347999643519e+02  3.0000000000000000e+02  3.0000000000000000e+02  3.0000000000000000e+02  2.9988994139403513e+02  3.0000000000000000e+02  3.0000000000000000e+02  3.0000000000000000e+02  2.9988703282809576e+02  3.0000000000000000e+02  3.0000000000000000e+02  3.0000000000000000e+02  2.9988462261006612e+02  3.0000000000000000e+02  3.0000000000000000e+02  3.0000000000000000e+02  2.9988261718785304e+02  3.0000000000000000e+02  3.0000000000000000e+02  3.0000000000000000e+02  2.9988094812205526e+02  3.0000000000000000e+02  3.0000000000000000e+02  3.0000000000000000e+02  2.9987956426582360e+02  3.0000000000000000e+02  3.0000000000000000e+02  3.0000000000000000e+02  2.9987842685391161e+02  3.0000000000000000e+02  3.0000000000000000e+02  3.0000000000000000e+02  2.9987750630753396e+02  3.0000000000000000e+02  3.0000000000000000e+02  3.0000000000000000e+02  2.9987678009945301e+02  3.0000000000000000e+02  3.0000000000000000e+02  3.0000000000000000e+02  2.9987623130266411e+02  3.0000000000000000e+02  3.0000000000000000e+02  3.0000000000000000e+02  2.9987584759858589e+02  3.0000000000000000e+02  3.0000000000000000e+02  3.0000000000000000e+02  2.9987562060823768e+02  3.0000000000000000e+02  3.0000000000000000e+02  3.0000000000000000e+02  2.9987554546271372e+02  3.0000000000000000e+02  3.0000000000000000e+02  3.0000000000000000e+02  2.9987562056304301e+02  3.0000000000000000e+02  3.0000000000000000e+02  2.9987584750290904e+02  3.0000000000000000e+02  2.9999999999999994e+02  2.9981084952230634e+02  2.9999999999999994e+02  2.9981785123502959e+02  2.9999999999999994e+02  2.9980507840649631e+02  2.9999999999999994e+02  2.9980028620899770e+02  2.9999999999999994e+02  2.9979629250773365e+02  2.9999999999999994e+02  2.9979296446014416e+02  2.9999999999999994e+02  2.9979020232092273e+02  2.9999999999999994e+02  2.9978793022491845e+02  2.9999999999999994e+02  2.9978609013082877e+02  2.9999999999999994e+02  2.9978463774443856e+02  2.9999999999999994e+02  2.9978353973167589e+02  2.9999999999999994e+02  2.9978277180600480e+02  2.9999999999999994e+02  2.9978231743463465e+02  2.9999999999999994e+02  2.9978216700580316e+02  2.9999999999999994e+02  2.9978231736256117e+02  2.9999999999999994e+02  2.9978277165264382e+02  3.0000000000000000e+02  2.9999999999999994e+02  2.9978353947858727e+02  2.9987623114591327e+02  2.9999999999999994e+02  2.9978463736393451e+02  3.0000000000000000e+02  2.9975007836983087e+02  3.0000000000000000e+02  3.0000000000000000e+02  2.9974155611583518e+02  3.0000000000000000e+02  2.9973445968361818e+02  3.0000000000000000e+02  2.9972853314130384e+02  3.0000000000000000e+02  2.9972358627931095e+02  3.0000000000000000e+02  2.9971947527378165e+02  3.0000000000000000e+02  2.9971609015032573e+02  3.0000000000000000e+02  2.9971334642871710e+02  3.0000000000000000e+02  2.9971117943632720e+02  3.0000000000000000e+02  2.9970954038746589e+02  3.0000000000000000e+02  2.9970839367511581e+02  3.0000000000000000e+02  2.9970771502993512e+02  3.0000000000000000e+02  2.9970749033119768e+02  3.0000000000000000e+02  2.9970771493957352e+02  3.0000000000000000e+02  2.9970839348204032e+02  3.0000000000000000e+02  2.9970954006697468e+02  3.0000000000000000e+02  2.9971117895138099e+02  2.9999999999999994e+02  3.0000000000000000e+02  2.9971334572997364e+02  2.9978608958594975e+02  3.0000000000000000e+02  2.9971608917621933e+02  3.0000000000000000e+02  2.9970156590955804e+02  3.0000000000000000e+02  2.9969045109134953e+02  3.0000000000000000e+02  2.9968116540013557e+02  3.0000000000000000e+02  2.9967339096014734e+02  3.0000000000000000e+02  2.9966688893752206e+02  3.0000000000000000e+02  2.9966147721491836e+02  3.0000000000000000e+02  2.9965701562331014e+02  3.0000000000000000e+02  2.9965339593826991e+02  3.0000000000000000e+02  2.9965053498259931e+02  3.0000000000000000e+02  2.9964836982164593e+02  3.0000000000000000e+02  2.9964685441754608e+02  3.0000000000000000e+02  2.9964595734090875e+02  3.0000000000000000e+02  2.9964566028628889e+02  3.0000000000000000e+02  2.9964595723678241e+02  3.0000000000000000e+02  2.9964685419434500e+02  3.0000000000000000e+02  2.9964836944949991e+02  3.0000000000000000e+02  2.9965053441678117e+02  3.0000000000000000e+02  2.9965339511932007e+02  3.0000000000000000e+02  2.9965701447726082e+02  3.0000000000000000e+02  3.0000000000000000e+02  2.9966147565368328e+02  3.0000000000000000e+02  2.9966688685956171e+02  3.0000000000000000e+02  2.9964840794663581e+02  3.0000000000000000e+02  2.9966192660924173e+02  3.0000000000000000e+02  2.9963707391034797e+02  3.0000000000000000e+02  2.9962755826024494e+02  3.0000000000000000e+02  2.9961958270840978e+02  3.0000000000000000e+02  2.9961293313564647e+02  3.0000000000000000e+02  2.9960744355749767e+02  3.0000000000000000e+02  2.9960298508716744e+02  3.0000000000000000e+02  2.9959945822322595e+02  3.0000000000000000e+02  2.9959678741818266e+02  3.0000000000000000e+02  2.9959491726306675e+02  3.0000000000000000e+02  2.9959380986017322e+02  3.0000000000000000e+02  2.9959344311020169e+02  3.0000000000000000e+02  2.9959380974523560e+02  3.0000000000000000e+02  2.9959491701608391e+02  3.0000000000000000e+02  2.9959678700499961e+02  3.0000000000000000e+02  2.9959945759277792e+02  3.0000000000000000e+02  2.9960298417172754e+02  3.0000000000000000e+02  2.9960744227309721e+02  3.0000000000000000e+02  2.9961293138276449e+02  3.0000000000000000e+02  2.9961958037309336e+02  3.0000000000000000e+02  3.0000000000000000e+02  2.9962755521592243e+02  3.0000000000000000e+02  2.9963707002077393e+02  3.0000000000000000e+02  2.9961332501732130e+02  3.0000000000000000e+02  2.9960009941820431e+02  3.0000000000000000e+02  2.9958896390693053e+02  3.0000000000000000e+02  2.9957960938028918e+02  3.0000000000000000e+02  2.9957179588403625e+02  3.0000000000000000e+02  2.9956533604852473e+02  3.0000000000000000e+02  2.9956008352190310e+02  3.0000000000000000e+02  2.9955592478617768e+02  3.0000000000000000e+02  2.9955277333244561e+02  3.0000000000000000e+02  2.9955056553354154e+02  3.0000000000000000e+02  2.9954925778249151e+02  3.0000000000000000e+02  2.9954882461742568e+02  3.0000000000000000e+02  2.9954925765942284e+02  3.0000000000000000e+02  2.9955056526853269e+02  3.0000000000000000e+02  2.9955277288785686e+02  3.0000000000000000e+02  2.9955592410583165e+02  3.0000000000000000e+02  2.9956008253148872e+02  3.0000000000000000e+02  2.9956533465625910e+02  3.0000000000000000e+02  2.9957179398171627e+02  3.0000000000000000e+02  2.9957960684494537e+02  3.0000000000000000e+02  2.9958896060341442e+02  3.0000000000000000e+02  2.9960009520324780e+02  3.0000000000000000e+02  3.0000000000000000e+02  2.9961331974593895e+02  2.9964840307071984e+02  3.0000000000000000e+02  3.0000000000000000e+02  2.9962903667392351e+02  3.0000000000000000e+02  2.9964777799050387e+02  3.0000000000000000e+02  2.9956882273261857e+02  3.0000000000000000e+02  3.0000000000000000e+02  2.9955619724862191e+02  3.0000000000000000e+02  2.9954556670776878e+02  3.0000000000000000e+02  2.9953667093561410e+02  3.0000000000000000e+02  2.9952930534799123e+02  3.0000000000000000e+02  2.9952330922037982e+02  3.0000000000000000e+02  2.9951855729906202e+02  3.0000000000000000e+02  2.9951495377412459e+02  3.0000000000000000e+02  2.9951242797470258e+02  3.0000000000000000e+02  2.9951093136521615e+02  3.0000000000000000e+02  2.9951043556755911e+02  3.0000000000000000e+02  2.9951093123713360e+02  3.0000000000000000e+02  2.9951242769827945e+02  3.0000000000000000e+02  2.9951495330899974e+02  3.0000000000000000e+02  2.9951855658511010e+02  3.0000000000000000e+02  2.9952330817829659e+02  3.0000000000000000e+02  2.9952930388022662e+02  3.0000000000000000e+02  2.9953666892782076e+02  3.0000000000000000e+02  2.9954556403101373e+02  3.0000000000000000e+02  2.9955619376274853e+02  3.0000000000000000e+02  2.9956881829134608e+02  3.0000000000000000e+02  2.9958376998845006e+02  3.0000000000000000e+02  2.9960147738668798e+02  3.0000000000000000e+02  2.9962250065281250e+02  3.0000000000000000e+02  3.0000000000000000e+02  2.9964758599447111e+02  3.0000000000000000e+02  2.9967775319661501e+02  3.0000000000000000e+02  2.9954222215125083e+02  3.0000000000000000e+02  2.9952824018414174e+02  3.0000000000000000e+02  2.9951644118034312e+02  3.0000000000000000e+02  2.9950654958230274e+02  3.0000000000000000e+02  2.9949834730872709e+02  3.0000000000000000e+02  2.9949166209661746e+02  3.0000000000000000e+02  2.9948635909469334e+02  3.0000000000000000e+02  2.9948233477682635e+02  3.0000000000000000e+02  2.9947951256513988e+02  3.0000000000000000e+02  2.9947783975868560e+02  3.0000000000000000e+02  2.9947728550239572e+02  3.0000000000000000e+02  2.9947783962949188e+02  3.0000000000000000e+02  2.9947951228547049e+02  3.0000000000000000e+02  2.9948233430432850e+02  3.0000000000000000e+02  2.9948635836639875e+02  3.0000000000000000e+02  2.9949166102971662e+02  3.0000000000000000e+02  2.9949834580178174e+02  3.0000000000000000e+02  2.9950654751708254e+02  3.0000000000000000e+02  2.9951643842456468e+02  3.0000000000000000e+02  2.9952823659551501e+02  3.0000000000000000e+02  2.9954221758342732e+02  3.0000000000000000e+02  2.9955873079078049e+02  3.0000000000000000e+02  2.9957822289528406e+02  3.0000000000000000e+02  2.9960127232171624e+02  3.0000000000000000e+02  2.9962864193181321e+02  3.0000000000000000e+02  2.9966136383529494e+02  3.0000000000000000e+02  3.0000000000000000e+02  2.9970088576334905e+02  3.0000000000000000e+02  3.0000000000000000e+02  2.9974934791474817e+02  2.9999999999999994e+02  2.9981016987321266e+02  3.0000000000000000e+02  2.9950432807431577e+02  3.0000000000000000e+02  2.9951953314914232e+02  3.0000000000000000e+02  2.9949146971696445e+02  3.0000000000000000e+02  2.9948067112715626e+02  3.0000000000000000e+02  2.9947170389960422e+02  3.0000000000000000e+02  2.9946438672099447e+02  3.0000000000000000e+02  2.9945857706317332e+02  3.0000000000000000e+02  2.9945416513383299e+02  3.0000000000000000e+02  2.9945106950307888e+02  3.0000000000000000e+02  2.9944923402043418e+02  3.0000000000000000e+02  2.9944862576870685e+02  3.0000000000000000e+02  2.9944923389491407e+02  3.0000000000000000e+02  2.9945106923007404e+02  3.0000000000000000e+02  2.9945416466967941e+02  3.0000000000000000e+02  2.9945857634307714e+02  3.0000000000000000e+02  2.9946438565998506e+02  3.0000000000000000e+02  2.9947170239400333e+02  3.0000000000000000e+02  2.9948066905675898e+02  3.0000000000000000e+02  2.9949146694821798e+02  3.0000000000000000e+02  2.9950432446489503e+02  3.0000000000000000e+02  2.9951952855449002e+02  3.0000000000000000e+02  2.9953744070954235e+02  3.0000000000000000e+02  2.9955851976653764e+02  3.0000000000000000e+02  2.9958335538584299e+02  3.0000000000000000e+02  2.9961271925945914e+02  3.0000000000000000e+02  2.9964764784285074e+02  3.0000000000000000e+02  2.9968958604017274e+02  3.0000000000000000e+02  2.9974066097485871e+02  2.9999999999999994e+02  2.9980426610056242e+02  3.0000000000000000e+02  3.0000000000000000e+02  2.9988647902250517e+02  3.0000000000000000e+02  3.0000000000000000e+02  3.0000000000000000e+02  3.0000000000000000e+02  2.9948387062562460e+02  3.0000000000000000e+02  3.0000000000000000e+02  2.9947006132051888e+02  3.0000000000000000e+02  2.9945844506343656e+02  3.0000000000000000e+02  2.9944878573934761e+02  3.0000000000000000e+02  2.9944089509270094e+02  3.0000000000000000e+02  2.9943462458356146e+02  3.0000000000000000e+02  2.9942985943398298e+02  3.0000000000000000e+02  2.9942651430725550e+02  3.0000000000000000e+02  2.9942453025155538e+02  3.0000000000000000e+02  2.9942387266582591e+02  3.0000000000000000e+02  2.9942453013529610e+02  3.0000000000000000e+02  2.9942651405239877e+02  3.0000000000000000e+02  2.9942985899616457e+02  3.0000000000000000e+02  2.9943462389705968e+02  3.0000000000000000e+02  2.9944089407154212e+02  3.0000000000000000e+02  2.9944878427898357e+02  3.0000000000000000e+02  2.9945844304319365e+02  3.0000000000000000e+02  2.9947005860709106e+02  3.0000000000000000e+02  2.9948386707799176e+02  3.0000000000000000e+02  2.9950016361862117e+02  3.0000000000000000e+02  2.9951931803255530e+02  3.0000000000000000e+02  2.9954179695668824e+02  3.0000000000000000e+02  2.9956819647737967e+02  3.0000000000000000e+02  2.9959929216757547e+02  3.0000000000000000e+02  2.9963612032936339e+02  3.0000000000000000e+02  2.9968011994733416e+02  3.0000000000000000e+02  2.9973340472024540e+02  2.9999999999999994e+02  2.9979934590023737e+02  3.0000000000000000e+02  2.9988399007851677e+02  3.0000000000000000e+02  3.0000000000000000e+02  3.0000000000000000e+02  2.9946640345365449e+02  3.0000000000000000e+02  2.9945174933556854e+02  3.0000000000000000e+02  2.9943940383321547e+02  3.0000000000000000e+02  2.9942912521155313e+02  3.0000000000000000e+02  2.9942072000541435e+02  3.0000000000000000e+02  2.9941403506325446e+02  3.0000000000000000e+02  2.9940895171834592e+02  3.0000000000000000e+02  2.9940538154853817e+02  3.0000000000000000e+02  2.9940326336994218e+02  3.0000000000000000e+02  2.9940256123218751e+02  3.0000000000000000e+02  2.9940326326913527e+02  3.0000000000000000e+02  2.9940538132448017e+02  3.0000000000000000e+02  2.9940895132649842e+02  3.0000000000000000e+02  2.9941403443772617e+02  3.0000000000000000e+02  2.9942071906017594e+02  3.0000000000000000e+02  2.9942912384225957e+02  3.0000000000000000e+02  2.9943940191982273e+02  3.0000000000000000e+02  2.9945174674600293e+02  3.0000000000000000e+02  2.9946640004887593e+02  3.0000000000000000e+02  2.9948366274852634e+02  3.0000000000000000e+02  2.9950391015441966e+02  3.0000000000000000e+02  2.9952761362613938e+02  3.0000000000000000e+02  2.9955537248915471e+02  3.0000000000000000e+02  2.9958796319448226e+02  3.0000000000000000e+02  2.9962641953469659e+02  3.0000000000000000e+02  2.9967217351415724e+02  3.0000000000000000e+02  2.9972732643052780e+02  2.9999999999999994e+02  2.9979523121127329e+02  3.0000000000000000e+02  2.9988191060423048e+02  3.0000000000000000e+02  3.0000000000000000e+02  3.0000000000000000e+02  2.9943616061744035e+02  3.0000000000000000e+02  2.9945155666574885e+02  3.0000000000000000e+02  2.9942317244298522e+02  3.0000000000000000e+02  2.9941234641326452e+02  3.0000000000000000e+02  2.9940348523969021e+02  3.0000000000000000e+02  2.9939643230522319e+02  3.0000000000000000e+02  2.9939106596889332e+02  3.0000000000000000e+02  2.9938729541789138e+02  3.0000000000000000e+02  2.9938505772294690e+02  3.0000000000000000e+02  2.9938431587239387e+02  3.0000000000000000e+02  2.9938505764411832e+02  3.0000000000000000e+02  2.9938729523790886e+02  3.0000000000000000e+02  2.9939106564347799e+02  3.0000000000000000e+02  2.9939643176892520e+02  3.0000000000000000e+02  2.9940348440716258e+02  3.0000000000000000e+02  2.9941234518115249e+02  3.0000000000000000e+02  2.9942317069260616e+02  3.0000000000000000e+02  2.9943615821848601e+02  3.0000000000000000e+02  2.9945155348131345e+02  3.0000000000000000e+02  2.9946966130985044e+02  3.0000000000000000e+02  2.9949086049530808e+02  3.0000000000000000e+02  2.9951562501275134e+02  3.0000000000000000e+02  2.9954455539374339e+02  3.0000000000000000e+02  2.9957842724980065e+02  3.0000000000000000e+02  2.9961827079813327e+02  3.0000000000000000e+02  2.9966551106903063e+02  3.0000000000000000e+02  2.9972223848917662e+02  2.9999999999999994e+02  2.9979179108715141e+02  3.0000000000000000e+02  2.9988017320720928e+02  3.0000000000000000e+02  3.0000000000000000e+02  3.0000000000000000e+02  2.9942299469948972e+02  3.0000000000000000e+02  2.9943903355629539e+02  3.0000000000000000e+02  2.9940944800903640e+02  3.0000000000000000e+02  2.9939814499479360e+02  3.0000000000000000e+02  2.9938888562649385e+02  3.0000000000000000e+02  2.9938151073701886e+02  3.0000000000000000e+02  2.9937589645535616e+02  3.0000000000000000e+02  2.9937195015168078e+02  3.0000000000000000e+02  2.9936960755748947e+02  3.0000000000000000e+02  2.9936883084187622e+02  3.0000000000000000e+02  2.9936960750720016e+02  3.0000000000000000e+02  2.9937195002907720e+02  3.0000000000000000e+02  2.9937589621676443e+02  3.0000000000000000e+02  2.9938151031790528e+02  3.0000000000000000e+02  2.9938888494274124e+02  3.0000000000000000e+02  2.9939814394457903e+02  3.0000000000000000e+02  2.9940944647547019e+02  3.0000000000000000e+02  2.9942299255421926e+02  3.0000000000000000e+02  2.9943903066434149e+02  3.0000000000000000e+02  2.9945786818980639e+02  3.0000000000000000e+02  2.9947988598617911e+02  3.0000000000000000e+02  2.9950555925310863e+02  3.0000000000000000e+02  2.9953548849828076e+02  3.0000000000000000e+02  2.9957044760976686e+02  3.0000000000000000e+02  2.9961146292542918e+02  3.0000000000000000e+02  2.9965995304221468e+02  3.0000000000000000e+02  2.9971799915425504e+02  2.9999999999999994e+02  2.9978892729664949e+02  3.0000000000000000e+02  2.9987872757091418e+02  3.0000000000000000e+02  3.0000000000000000e+02  3.0000000000000000e+02  2.9941200922273634e+02  3.0000000000000000e+02  3.0000000000000000e+02  2.9939798549469322e+02  3.0000000000000000e+02  2.9938627414639694e+02  3.0000000000000000e+02  2.9937667322995185e+02  3.0000000000000000e+02  2.9936902174270278e+02  3.0000000000000000e+02  2.9936319417582843e+02  3.0000000000000000e+02  2.9935909654586681e+02  3.0000000000000000e+02  2.9935666357677297e+02  3.0000000000000000e+02  2.9935585681750865e+02  3.0000000000000000e+02  2.9935666356131509e+02  3.0000000000000000e+02  2.9935909649336998e+02  3.0000000000000000e+02  2.9936319404349325e+02  3.0000000000000000e+02  2.9936902146727112e+02  3.0000000000000000e+02  2.9937667272893009e+02  3.0000000000000000e+02  2.9938627331984713e+02  3.0000000000000000e+02  2.9939798422773333e+02  3.0000000000000000e+02  2.9941200738893201e+02  3.0000000000000000e+02  2.9942859313650041e+02  3.0000000000000000e+02  2.9944805044751422e+02  3.0000000000000000e+02  2.9947076128473094e+02  3.0000000000000000e+02  2.9949720119996073e+02  3.0000000000000000e+02  2.9952796999723358e+02  3.0000000000000000e+02  2.9956383949043334e+02  3.0000000000000000e+02  2.9960583227485012e+02  3.0000000000000000e+02  2.9965536130196818e+02  3.0000000000000000e+02  2.9971450011029651e+02  2.9999999999999994e+02  2.9978656517476236e+02  3.0000000000000000e+02  2.9987753558392075e+02  3.0000000000000000e+02  3.0000000000000000e+02  3.0000000000000000e+02  2.9940300948902552e+02  3.0000000000000000e+02  3.0000000000000000e+02  2.9938858750566538e+02  3.0000000000000000e+02  2.9937653459767182e+02  3.0000000000000000e+02  2.9936664751225788e+02  3.0000000000000000e+02  2.9935876395695129e+02  3.0000000000000000e+02  2.9935275724693633e+02  3.0000000000000000e+02  2.9934853241222879e+02  3.0000000000000000e+02  2.9934602343507231e+02  3.0000000000000000e+02  2.9934519140507354e+02  3.0000000000000000e+02  2.9934602346017988e+02  3.0000000000000000e+02  2.9934853244142164e+02  3.0000000000000000e+02  2.9935275723850066e+02  3.0000000000000000e+02  2.9935876384917884e+02  3.0000000000000000e+02  2.9936664722456419e+02  3.0000000000000000e+02  2.9937653403223135e+02  3.0000000000000000e+02  2.9938858654968908e+02  3.0000000000000000e+02  2.9940300801784406e+02  3.0000000000000000e+02  2.9942004996453488e+02  3.0000000000000000e+02  2.9944002229990940e+02  3.0000000000000000e+02  2.9946330747908360e+02  3.0000000000000000e+02  2.9949038090307931e+02  3.0000000000000000e+02  2.9952184136479377e+02  3.0000000000000000e+02  2.9955845859009258e+02  3.0000000000000000e+02  2.9960125181715409e+02  3.0000000000000000e+02  2.9965162923621801e+02  3.0000000000000000e+02  2.9971165818532387e+02  2.9999999999999994e+02  2.9978464762193357e+02  3.0000000000000000e+02  2.9987656817728276e+02  3.0000000000000000e+02  3.0000000000000000e+02  3.0000000000000000e+02  2.9939584085221776e+02  3.0000000000000000e+02  2.9938109686664086e+02  3.0000000000000000e+02  2.9936876735606035e+02  3.0000000000000000e