<?xml version="1.0"?>
<VTKFile type="UnstructuredGrid"  version="0.1"  >
<UnstructuredGrid>
<Piece  NumberOfPoints="18579" NumberOfCells="98284">
<Points>
<DataArray  type="Float64"  NumberOfComponents="3"  format="ascii">0.525 0 0  0.55 0 0  0.55 0.025 0  0.55 0.025 0.025  0.55 0 0.025  0.575 0 0  0.575 0.025 0  0.575 0.025 0.025  0.575 0 0.025  0.6 0 0  0.6 0.025 0  0.6 0.025 0.025  0.6 0 0.025  0.625 0 0  0.625 0.025 0  0.625 0.025 0.025  0.625 0 0.025  0.65 0 0  0.65 0.025 0  0.65 0.025 0.025  0.65 0 0.025  0.675 0 0  0.675 0.025 0  0.675 0.025 0.025  0.675 0 0.025  0.7 0 0  0.7 0.025 0  0.7 0.025 0.025  0.7 0 0.025  0.725 0 0  0.725 0.025 0  0.725 0.025 0.025  0.725 0 0.025  0.75 0 0  0.75 0.025 0  0.75 0.025 0.025  0.75 0 0.025  0.775 0 0  0.775 0.025 0  0.775 0.025 0.025  0.775 0 0.025  0.8 0 0  0.8 0.025 0  0.8 0.025 0.025  0.8 0 0.025  0.825 0 0  0.825 0.025 0  0.825 0.025 0.025  0.825 0 0.025  0.85 0 0  0.85 0.025 0  0.85 0.025 0.025  0.85 0 0.025  0.875 0 0  0.875 0.025 0  0.875 0.025 0.025  0.875 0 0.025  0.9 0 0  0.9 0.025 0  0.9 0.025 0.025  0.9 0 0.025  0.925 0 0  0.925 0.025 0  0.925 0.025 0.025  0.925 0 0.025  0.95 0 0  0.95 0.025 0  0.95 0.025 0.025  0.95 0 0.025  0.975 0 0  0.975 0.025 0  0.975 0.025 0.025  0.975 0 0.025  1 0 0  1 0.025 0  1 0.025 0.025  1 0 0.025  0.6 0.05 0  0.6 0.05 0.025  0.625 0.05 0  0.625 0.05 0.025  0.65 0.05 0  0.65 0.05 0.025  0.675 0.05 0  0.675 0.05 0.025  0.7 0.05 0  0.7 0.05 0.025  0.725 0.05 0  0.725 0.05 0.025  0.75 0.05 0  0.75 0.05 0.025  0.775 0.05 0  0.775 0.05 0.025  0.8 0.05 0  0.8 0.05 0.025  0.825 0.05 0  0.825 0.05 0.025  0.85 0.05 0  0.85 0.05 0.025  0.875 0.05 0  0.875 0.05 0.025  0.9 0.05 0  0.9 0.05 0.025  0.925 0.05 0  0.925 0.05 0.025  0.95 0.05 0  0.95 0.05 0.025  0.975 0.05 0  0.975 0.05 0.025  1 0.05 0  1 0.05 0.025  0.65 0.075 0  0.65 0.075 0.025  0.675 0.075 0  0.675 0.075 0.025  0.7 0.075 0  0.7 0.075 0.025  0.725 0.075 0  0.725 0.075 0.025  0.75 0.075 0  0.75 0.075 0.025  0.775 0.075 0  0.775 0.075 0.025  0.8 0.075 0  0.8 0.075 0.025  0.825 0.075 0  0.825 0.075 0.025  0.85 0.075 0  0.85 0.075 0.025  0.875 0.075 0  0.875 0.075 0.025  0.9 0.075 0  0.9 0.075 0.025  0.925 0.075 0  0.925 0.075 0.025  0.95 0.075 0  0.95 0.075 0.025  0.975 0.075 0  0.975 0.075 0.025  1 0.075 0  1 0.075 0.025  0.675 0.1 0.025  0.7 0.1 0  0.7 0.1 0.025  0.725 0.1 0  0.725 0.1 0.025  0.75 0.1 0  0.75 0.1 0.025  0.775 0.1 0  0.775 0.1 0.025  0.8 0.1 0  0.8 0.1 0.025  0.825 0.1 0  0.825 0.1 0.025  0.85 0.1 0  0.85 0.1 0.025  0.875 0.1 0  0.875 0.1 0.025  0.9 0.1 0  0.9 0.1 0.025  0.925 0.1 0  0.925 0.1 0.025  0.95 0.1 0  0.95 0.1 0.025  0.975 0.1 0  0.975 0.1 0.025  1 0.1 0  1 0.1 0.025  0.725 0.125 0.025  0.75 0.125 0  0.75 0.125 0.025  0.775 0.125 0  0.775 0.125 0.025  0.8 0.125 0  0.8 0.125 0.025  0.825 0.125 0  0.825 0.125 0.025  0.85 0.125 0  0.85 0.125 0.025  0.875 0.125 0  0.875 0.125 0.025  0.9 0.125 0  0.9 0.125 0.025  0.925 0.125 0  0.925 0.125 0.025  0.95 0.125 0  0.95 0.125 0.025  0.975 0.125 0  0.975 0.125 0.025  1 0.125 0  1 0.125 0.025  0.8 0.15 0.025  0.825 0.15 0  0.825 0.15 0.025  0.85 0.15 0  0.85 0.15 0.025  0.875 0.15 0  0.875 0.15 0.025  0.9 0.15 0  0.9 0.15 0.025  0.925 0.15 0  0.925 0.15 0.025  0.95 0.15 0  0.95 0.15 0.025  0.975 0.15 0  0.975 0.15 0.025  1 0.15 0  1 0.15 0.025  0.85 0.175 0.025  0.875 0.175 0  0.875 0.175 0.025  0.9 0.175 0  0.9 0.175 0.025  0.925 0.175 0  0.925 0.175 0.025  0.95 0.175 0  0.95 0.175 0.025  0.975 0.175 0  0.975 0.175 0.025  1 0.175 0  1 0.175 0.025  0.9 0.2 0.025  0.925 0.2 0.025  0.95 0.2 0  0.95 0.2 0.025  0.975 0.2 0  0.975 0.2 0.025  1 0.2 0  1 0.2 0.025  0.975 0.225 0.025  1 0.225 0.025  0.575 0.025 0.05  0.575 0 0.05  0.55 0 0.05  0.55 0.025 0.05  0.6 0.025 0.05  0.6 0 0.05  0.625 0.025 0.05  0.625 0 0.05  0.65 0.025 0.05  0.65 0 0.05  0.675 0.025 0.05  0.675 0 0.05  0.7 0.025 0.05  0.7 0 0.05  0.725 0.025 0.05  0.725 0 0.05  0.75 0.025 0.05  0.75 0 0.05  0.775 0.025 0.05  0.775 0 0.05  0.8 0.025 0.05  0.8 0 0.05  0.825 0.025 0.05  0.825 0 0.05  0.85 0.025 0.05  0.85 0 0.05  0.875 0.025 0.05  0.875 0 0.05  0.9 0.025 0.05  0.9 0 0.05  0.925 0.025 0.05  0.925 0 0.05  0.95 0.025 0.05  0.95 0 0.05  0.975 0.025 0.05  0.975 0 0.05  1 0.025 0.05  1 0 0.05  0.575 0.05 0.05  0.6 0.05 0.05  0.625 0.05 0.05  0.65 0.05 0.05  0.675 0.05 0.05  0.7 0.05 0.05  0.725 0.05 0.05  0.75 0.05 0.05  0.775 0.05 0.05  0.8 0.05 0.05  0.825 0.05 0.05  0.85 0.05 0.05  0.875 0.05 0.05  0.9 0.05 0.05  0.925 0.05 0.05  0.95 0.05 0.05  0.975 0.05 0.05  1 0.05 0.05  0.625 0.075 0.05  0.65 0.075 0.05  0.675 0.075 0.05  0.7 0.075 0.05  0.725 0.075 0.05  0.75 0.075 0.05  0.775 0.075 0.05  0.8 0.075 0.05  0.825 0.075 0.05  0.85 0.075 0.05  0.875 0.075 0.05  0.9 0.075 0.05  0.925 0.075 0.05  0.95 0.075 0.05  0.975 0.075 0.05  1 0.075 0.05  0.675 0.1 0.05  0.7 0.1 0.05  0.725 0.1 0.05  0.75 0.1 0.05  0.775 0.1 0.05  0.8 0.1 0.05  0.825 0.1 0.05  0.85 0.1 0.05  0.875 0.1 0.05  0.9 0.1 0.05  0.925 0.1 0.05  0.95 0.1 0.05  0.975 0.1 0.05  1 0.1 0.05  0.7 0.125 0.05  0.725 0.125 0.05  0.75 0.125 0.05  0.775 0.125 0.05  0.8 0.125 0.05  0.825 0.125 0.05  0.85 0.125 0.05  0.875 0.125 0.05  0.9 0.125 0.05  0.925 0.125 0.05  0.95 0.125 0.05  0.975 0.125 0.05  1 0.125 0.05  0.775 0.15 0.05  0.8 0.15 0.05  0.825 0.15 0.05  0.85 0.15 0.05  0.875 0.15 0.05  0.9 0.15 0.05  0.925 0.15 0.05  0.95 0.15 0.05  0.975 0.15 0.05  1 0.15 0.05  0.85 0.175 0.05  0.875 0.175 0.05  0.9 0.175 0.05  0.925 0.175 0.05  0.95 0.175 0.05  0.975 0.175 0.05  1 0.175 0.05  0.9 0.2 0.05  0.925 0.2 0.05  0.95 0.2 0.05  0.975 0.2 0.05  1 0.2 0.05  0.975 0.225 0.05  1 0.225 0.05  0.575 0.025 0.075  0.575 0 0.075  0.55 0 0.075  0.55 0.025 0.075  0.6 0.025 0.075  0.6 0 0.075  0.625 0.025 0.075  0.625 0 0.075  0.65 0.025 0.075  0.65 0 0.075  0.675 0.025 0.075  0.675 0 0.075  0.7 0.025 0.075  0.7 0 0.075  0.725 0.025 0.075  0.725 0 0.075  0.75 0.025 0.075  0.75 0 0.075  0.775 0.025 0.075  0.775 0 0.075  0.8 0.025 0.075  0.8 0 0.075  0.825 0.025 0.075  0.825 0 0.075  0.85 0.025 0.075  0.85 0 0.075  0.875 0.025 0.075  0.875 0 0.075  0.9 0.025 0.075  0.9 0 0.075  0.925 0.025 0.075  0.925 0 0.075  0.95 0.025 0.075  0.95 0 0.075  0.975 0.025 0.075  0.975 0 0.075  1 0.025 0.075  1 0 0.075  0.575 0.05 0.075  0.6 0.05 0.075  0.625 0.05 0.075  0.65 0.05 0.075  0.675 0.05 0.075  0.7 0.05 0.075  0.725 0.05 0.075  0.75 0.05 0.075  0.775 0.05 0.075  0.8 0.05 0.075  0.825 0.05 0.075  0.85 0.05 0.075  0.875 0.05 0.075  0.9 0.05 0.075  0.925 0.05 0.075  0.95 0.05 0.075  0.975 0.05 0.075  1 0.05 0.075  0.6 0.075 0.075  0.625 0.075 0.075  0.65 0.075 0.075  0.675 0.075 0.075  0.7 0.075 0.075  0.725 0.075 0.075  0.75 0.075 0.075  0.775 0.075 0.075  0.8 0.075 0.075  0.825 0.075 0.075  0.85 0.075 0.075  0.875 0.075 0.075  0.9 0.075 0.075  0.925 0.075 0.075  0.95 0.075 0.075  0.975 0.075 0.075  1 0.075 0.075  0.65 0.1 0.075  0.675 0.1 0.075  0.65 0.1 0.05  0.7 0.1 0.075  0.725 0.1 0.075  0.75 0.1 0.075  0.775 0.1 0.075  0.8 0.1 0.075  0.825 0.1 0.075  0.85 0.1 0.075  0.875 0.1 0.075  0.9 0.1 0.075  0.925 0.1 0.075  0.95 0.1 0.075  0.975 0.1 0.075  1 0.1 0.075  0.675 0.125 0.075  0.7 0.125 0.075  0.725 0.125 0.075  0.75 0.125 0.075  0.775 0.125 0.075  0.8 0.125 0.075  0.825 0.125 0.075  0.85 0.125 0.075  0.875 0.125 0.075  0.9 0.125 0.075  0.925 0.125 0.075  0.95 0.125 0.075  0.975 0.125 0.075  1 0.125 0.075  0.725 0.15 0.075  0.75 0.15 0.075  0.775 0.15 0.075  0.8 0.15 0.075  0.825 0.15 0.075  0.85 0.15 0.075  0.875 0.15 0.075  0.9 0.15 0.075  0.925 0.15 0.075  0.95 0.15 0.075  0.975 0.15 0.075  1 0.15 0.075  0.8 0.175 0.075  0.825 0.175 0.075  0.85 0.175 0.075  0.875 0.175 0.075  0.9 0.175 0.075  0.925 0.175 0.075  0.95 0.175 0.075  0.975 0.175 0.075  1 0.175 0.075  0.875 0.2 0.075  0.9 0.2 0.075  0.925 0.2 0.075  0.95 0.2 0.075  0.975 0.2 0.075  1 0.2 0.075  0.95 0.225 0.075  0.975 0.225 0.075  1 0.225 0.075  0.575 0.025 0.1  0.575 0 0.1  0.55 0 0.1  0.55 0.025 0.1  0.6 0.025 0.1  0.6 0 0.1  0.625 0.025 0.1  0.625 0 0.1  0.65 0.025 0.1  0.65 0 0.1  0.675 0.025 0.1  0.675 0 0.1  0.7 0.025 0.1  0.7 0 0.1  0.725 0.025 0.1  0.725 0 0.1  0.75 0.025 0.1  0.75 0 0.1  0.775 0.025 0.1  0.775 0 0.1  0.8 0.025 0.1  0.8 0 0.1  0.825 0.025 0.1  0.825 0 0.1  0.85 0.025 0.1  0.85 0 0.1  0.875 0.025 0.1  0.875 0 0.1  0.9 0.025 0.1  0.9 0 0.1  0.925 0.025 0.1  0.925 0 0.1  0.95 0.025 0.1  0.95 0 0.1  0.975 0.025 0.1  0.975 0 0.1  1 0.025 0.1  1 0 0.1  0.575 0.05 0.1  0.6 0.05 0.1  0.625 0.05 0.1  0.65 0.05 0.1  0.675 0.05 0.1  0.7 0.05 0.1  0.725 0.05 0.1  0.75 0.05 0.1  0.775 0.05 0.1  0.8 0.05 0.1  0.825 0.05 0.1  0.85 0.05 0.1  0.875 0.05 0.1  0.9 0.05 0.1  0.925 0.05 0.1  0.95 0.05 0.1  0.975 0.05 0.1  1 0.05 0.1  0.6 0.075 0.1  0.625 0.075 0.1  0.65 0.075 0.1  0.675 0.075 0.1  0.7 0.075 0.1  0.725 0.075 0.1  0.75 0.075 0.1  0.775 0.075 0.1  0.8 0.075 0.1  0.825 0.075 0.1  0.85 0.075 0.1  0.875 0.075 0.1  0.9 0.075 0.1  0.925 0.075 0.1  0.95 0.075 0.1  0.975 0.075 0.1  1 0.075 0.1  0.625 0.1 0.075  0.625 0.1 0.1  0.6 0.1 0.1  0.65 0.1 0.1  0.675 0.1 0.1  0.7 0.1 0.1  0.725 0.1 0.1  0.75 0.1 0.1  0.775 0.1 0.1  0.8 0.1 0.1  0.825 0.1 0.1  0.85 0.1 0.1  0.875 0.1 0.1  0.9 0.1 0.1  0.925 0.1 0.1  0.95 0.1 0.1  0.975 0.1 0.1  1 0.1 0.1  0.65 0.125 0.1  0.625 0.125 0.1  0.675 0.125 0.1  0.7 0.125 0.1  0.725 0.125 0.1  0.75 0.125 0.1  0.775 0.125 0.1  0.8 0.125 0.1  0.825 0.125 0.1  0.85 0.125 0.1  0.875 0.125 0.1  0.9 0.125 0.1  0.925 0.125 0.1  0.95 0.125 0.1  0.975 0.125 0.1  1 0.125 0.1  0.7 0.15 0.1  0.725 0.15 0.1  0.75 0.15 0.1  0.775 0.15 0.1  0.8 0.15 0.1  0.825 0.15 0.1  0.85 0.15 0.1  0.875 0.15 0.1  0.9 0.15 0.1  0.925 0.15 0.1  0.95 0.15 0.1  0.975 0.15 0.1  1 0.15 0.1  0.775 0.175 0.1  0.8 0.175 0.1  0.825 0.175 0.1  0.85 0.175 0.1  0.875 0.175 0.1  0.9 0.175 0.1  0.925 0.175 0.1  0.95 0.175 0.1  0.975 0.175 0.1  1 0.175 0.1  0.85 0.2 0.1  0.875 0.2 0.1  0.9 0.2 0.1  0.925 0.2 0.1  0.95 0.2 0.1  0.975 0.2 0.1  1 0.2 0.1  0.925 0.225 0.1  0.95 0.225 0.1  0.975 0.225 0.1  1 0.225 0.1  0.45 0 0.1  0.475 0 0.1  0.
[...]
<PointData  Scalars="f_11"> 
<DataArray  type="Float64"  Name="f_11"  format="ascii">3.0000000000000000e+02  3.0000000000000000e+02  3.0000000000000000e+02  2.9987584750290904e+02  3.0000000000000000e+02  3.0000000000000000e+02  3.0000000000000000e+02  2.9987623114591327e+02  3.0000000000000000e+02  3.0000000000000000e+02  3.0000000000000000e+02  2.9987677986570066e+02  3.0000000000000000e+02  3.0000000000000000e+02  3.0000000000000000e+02  2.9987750597547040e+02  3.0000000000000000e+02  3.0000000000000000e+02  3.0000000000000000e+02  2.9987842639678655e+02  3.0000000000000000e+02  3.0000000000000000e+02  3.0000000000000000e+02  2.9987956365138058e+02  3.0000000000000000e+02  3.0000000000000000e+02  3.0000000000000000e+02  2.9988094731246616e+02  3.0000000000000000e+02  3.0000000000000000e+02  3.0000000000000000e+02  2.9988261613966853e+02  3.0000000000000000e+02  3.0000000000000000e+02  3.0000000000000000e+02  2.9988462127421167e+02  3.0000000000000000e+02  3.0000000000000000e+02  3.0000000000000000e+02  2.9988703114997645e+02  3.0000000000000000e+02  3.0000000000000000e+02  3.0000000000000000e+02  2.9988993931388450e+02  3.0000000000000000e+02  3.0000000000000000e+02  3.0000000000000000e+02  2.9989347745021928e+02  3.0000000000000000e+02  3.0000000000000000e+02  3.0000000000000000e+02  2.9989783832103512e+02  3.0000000000000000e+02  3.0000000000000000e+02  3.0000000000000000e+02  2.9990331909235266e+02  3.0000000000000000e+02  3.0000000000000000e+02  3.0000000000000000e+02  2.9991041057496977e+02  3.0000000000000000e+02  3.0000000000000000e+02  3.0000000000000000e+02  2.9992000164910729e+02  3.0000000000000000e+02  3.0000000000000000e+02  3.0000000000000000e+02  2.9993391026934302e+02  3.0000000000000000e+02  3.0000000000000000e+02  3.0000000000000000e+02  2.9995646984182417e+02  3.0000000000000000e+02  3.0000000000000000e+02  3.0000000000000000e+02  2.9999999999999994e+02  3.0000000000000000e+02  2.9999999999999994e+02  2.9978463736393451e+02  2.9999999999999994e+02  2.9978608958594975e+02  2.9999999999999994e+02  2.9978792946941502e+02  2.9999999999999994e+02  2.9979020129926585e+02  2.9999999999999994e+02  2.9979296310758974e+02  2.9999999999999994e+02  2.9979629075049957e+02  2.9999999999999994e+02  2.9980028396465048e+02  2.9999999999999994e+02  2.9980507558473829e+02  2.9999999999999994e+02  2.9981084602655329e+02  2.9999999999999994e+02  2.9981784696560806e+02  2.9999999999999994e+02  2.9982644196406295e+02  2.9999999999999994e+02  2.9983718033229707e+02  2.9999999999999994e+02  2.9985094093933640e+02  2.9999999999999994e+02  2.9986923531660199e+02  2.9999999999999994e+02  2.9989490523127273e+02  3.0000000000000000e+02  2.9993388101118143e+02  3.0000000000000000e+02  3.0000000000000000e+02  3.0000000000000000e+02  2.9971608917621933e+02  3.0000000000000000e+02  2.9971947395068622e+02  3.0000000000000000e+02  2.9972358452185267e+02  3.0000000000000000e+02  2.9972853085293036e+02  3.0000000000000000e+02  2.9973445675762758e+02  3.0000000000000000e+02  2.9974155243722396e+02  3.0000000000000000e+02  2.9975007381868193e+02  3.0000000000000000e+02  2.9976037341577450e+02  3.0000000000000000e+02  2.9977295162504652e+02  3.0000000000000000e+02  2.9978854618768918e+02  3.0000000000000000e+02  2.9980829730173861e+02  3.0000000000000000e+02  2.9983407337832739e+02  2.9999999999999994e+02  2.9986916646688280e+02  3.0000000000000000e+02  2.9991992200805294e+02  3.0000000000000000e+02  3.0000000000000000e+02  2.9966147565368328e+02  3.0000000000000000e+02  2.9966688685956171e+02  3.0000000000000000e+02  2.9967338825158953e+02  3.0000000000000000e+02  2.9968116193667271e+02  3.0000000000000000e+02  2.9969044674147818e+02  3.0000000000000000e+02  2.9970156054021754e+02  3.0000000000000000e+02  2.9971493501444547e+02  3.0000000000000000e+02  2.9973117171664393e+02  3.0000000000000000e+02  2.9975113643913551e+02  3.0000000000000000e+02  2.9977612662877516e+02  3.0000000000000000e+02  2.9980818886975743e+02  2.9999999999999994e+02  2.9985077562249120e+02  3.0000000000000000e+02  2.9991026565363074e+02  3.0000000000000000e+02  3.0000000000000000e+02  2.9962755521592243e+02  3.0000000000000000e+02  2.9963707002077393e+02  3.0000000000000000e+02  2.9964840307071984e+02  3.0000000000000000e+02  2.9966192060907741e+02  3.0000000000000000e+02  2.9967811307001602e+02  3.0000000000000000e+02  2.9969765211506603e+02  3.0000000000000000e+02  2.9972148425313253e+02  3.0000000000000000e+02  2.9975099313265400e+02  3.0000000000000000e+02  2.9978830237541428e+02  2.9999999999999994e+02  2.9983689977417350e+02  3.0000000000000000e+02  2.9990309894604809e+02  3.0000000000000000e+02  3.0000000000000000e+02  2.9962903667392351e+02  3.0000000000000000e+02  2.9964777799050387e+02  3.0000000000000000e+02  2.9967026133515117e+02  3.0000000000000000e+02  2.9969748070795043e+02  3.0000000000000000e+02  2.9973086230106264e+02  3.0000000000000000e+02  2.9977255501053367e+02  2.9999999999999994e+02  2.9982603432695799e+02  3.0000000000000000e+02  2.9989753696779269e+02  3.0000000000000000e+02  3.0000000000000000e+02  2.9964758599447111e+02  3.0000000000000000e+02  2.9967775319661501e+02  3.0000000000000000e+02  2.9971444598164800e+02  3.0000000000000000e+02  2.9975981409080578e+02  2.9999999999999994e+02  2.9981730596894823e+02  3.0000000000000000e+02  2.9989309208376807e+02  3.0000000000000000e+02  3.0000000000000000e+02  2.9970088576334905e+02  2.9974934791474817e+02  2.9999999999999994e+02  2.9981016987321266e+02  3.0000000000000000e+02  2.9988946967505325e+02  3.0000000000000000e+02  3.0000000000000000e+02  2.9988647902250517e+02  3.0000000000000000e+02  2.9978353947858722e+02  2.9999999999999994e+02  2.9999999999999994e+02  2.9978277165264370e+02  2.9978463736393434e+02  2.9999999999999994e+02  2.9978608958594964e+02  2.9999999999999994e+02  2.9978792946941496e+02  2.9999999999999994e+02  2.9979020129926579e+02  2.9999999999999994e+02  2.9979296310758974e+02  2.9999999999999994e+02  2.9979629075049974e+02  2.9999999999999994e+02  2.9980028396465053e+02  2.9999999999999994e+02  2.9980507558473829e+02  2.9999999999999994e+02  2.9981084602655329e+02  2.9999999999999994e+02  2.9981784696560806e+02  2.9999999999999994e+02  2.9982644196406301e+02  2.9999999999999994e+02  2.9983718033229718e+02  2.9999999999999994e+02  2.9985094093933634e+02  2.9999999999999994e+02  2.9986923531660199e+02  2.9999999999999994e+02  2.9989490523127267e+02  2.9999999999999994e+02  2.9993388101118148e+02  3.0000000000000000e+02  3.0000000000000000e+02  3.0000000000000000e+02  2.9961039538010658e+02  2.9961258813138710e+02  2.9961548758898715e+02  2.9961915939963865e+02  2.9962369066828296e+02  2.9962919531132013e+02  2.9963582184334416e+02  2.9964376485900334e+02  2.9965328233488111e+02  2.9966472245314418e+02  2.9967856665161116e+02  2.9969550157416052e+02  2.9971654496977430e+02  2.9974327718171185e+02  2.9977828815260347e+02  2.9982607501763647e+02  2.9989486022526063e+02  2.9999999999999994e+02  2.9947570329204768e+02  2.9948117348591552e+02  2.9948791899124194e+02  2.9949610566518811e+02  2.9950594887023721e+02  2.9951772931282096e+02  2.9953181657084843e+02  2.9954870489556845e+02  2.9956906928337406e+02  2.9959385620986615e+02  2.9962443572807888e+02  2.9966286565977197e+02  2.9971236497647999e+02  2.9977817654357142e+02  2.9986911051133973e+02  2.9999999999999994e+02  2.9937498191931047e+02  2.9938575438399135e+02  2.9939868743618285e+02  2.9941413666475472e+02  2.9943256636539292e+02  2.9945459083811431e+02  2.9948103744432819e+02  2.9951304550404387e+02  2.9955222592035585e+02  2.9960092637520404e+02  2.9966268343711823e+02  2.9974300541205571e+02  2.9985071085415876e+02  2.9999999999999994e+02  2.9929296970362230e+02  2.9930883078625550e+02  2.9932773777695519e+02  2.9935023193186117e+02  2.9937702145799739e+02  2.9940904707755686e+02  2.9944758223577765e+02  2.9949439036838982e+02  2.9955197890740408e+02  2.9962402172144732e+02  2.9971607906033398e+02  2.9983682743417694e+02  2.9999999999999994e+02  2.9928118927134540e+02  2.9931234151578508e+02  2.9934941787701962e+02  2.9939377999486351e+02  2.9944728129194266e+02  2.9951250800849590e+02  2.9959317751995087e+02  2.9969481946047387e+02  2.9982595530931451e+02  2.9999999999999994e+02  2.9934907608713149e+02  2.9940841146156674e+02  2.9948018286915226e+02  2.9956810647681664e+02  2.9967765602787455e+02  2.9981722100580197e+02  2.9999999999999994e+02  2.9945340618673754e+02  2.9954744951321675e+02  2.9966357899479311e+02  2.9981007960463108e+02  2.9999999999999994e+02  2.9980417110474735e+02  2.9999999999999994e+02  2.9970954006697445e+02  3.0000000000000000e+02  3.0000000000000000e+02  2.9970839348203992e+02  2.9971117895138070e+02  3.0000000000000000e+02  2.9971334572997353e+02  3.0000000000000000e+02  2.9971608917621910e+02  3.0000000000000000e+02  2.9971947395068622e+02  3.0000000000000000e+02  2.9972358452185256e+02  3.0000000000000000e+02  2.9972853085293053e+02  3.0000000000000000e+02  2.9973445675762781e+02  3.0000000000000000e+02  2.9974155243722407e+02  3.0000000000000000e+02  2.9975007381868198e+02  3.0000000000000000e+02  2.9976037341577444e+02  3.0000000000000000e+02  2.9977295162504663e+02  3.0000000000000000e+02  2.9978854618768935e+02  3.0000000000000000e+02  2.9980829730173861e+02  3.0000000000000000e+02  2.9983407337832739e+02  3.0000000000000000e+02  2.9986916646688275e+02  2.9999999999999994e+02  2.9991992200805288e+02  3.0000000000000000e+02  3.0000000000000000e+02  3.0000000000000000e+02  2.9946811110065278e+02  2.9947138119679266e+02  2.9947570329204757e+02  2.9948117348591535e+02  2.9948791899124177e+02  2.9949610566518805e+02  2.9950594887023715e+02  2.9951772931282085e+02  2.9953181657084849e+02  2.9954870489556851e+02  2.9956906928337401e+02  2.9959385620986620e+02  2.9962443572807899e+02  2.9966286565977197e+02  2.9971236497647999e+02  2.9977817654357142e+02  2.9986911051133984e+02  2.9999999999999994e+02  2.9926994780426054e+02  2.9927638684779777e+02  2.9928453182897272e+02  2.9929456858155868e+02  2.9930673865694644e+02  2.9932135446789721e+02  2.9933882112663400e+02  2.9935966841605699e+02  2.9938459852443975e+02  2.9941455895090172e+02  2.9945085657321039e+02  2.9949534030754882e+02  2.9955069898328719e+02  2.9962094990100712e+02  2.9971222293711253e+02  2.9983391688778573e+02  3.0000000000000000e+02  2.9911819483907476e+02  2.9913141325073036e+02  2.9936609546013301e+02  2.9914742331169742e+02  2.9916662349352498e+02  2.9918952723119628e+02  2.9921680051626754e+02  2.9924931685326499e+02  2.9928823899546177e+02  2.9933514262620014e+02  2.9939220627147387e+02  2.9946250514956347e+02  2.9955046255604412e+02  2.9966251719173772e+02  2.9980800695297279e+02  3.0000000000000000e+02  2.9899258331957191e+02  2.9901224836551762e+02  2.9903579377891776e+02  2.9906382374070643e+02  2.9909711512263692e+02  2.9913667577758321e+02  2.9918382915169639e+02  2.9924033871574238e+02  2.9930859286338978e+02  2.9939188073365187e+02  2.9949479971734809e+02  2.9962383485299080e+02  2.9978809862372901e+02  3.0000000000000000e+02  2.9892444573684952e+02  2.9895724850091813e+02  2.9899610365245508e+02  2.9904211999412894e+02  2.9909673524501034e+02  2.9916183676755776e+02  2.9923993709919313e+02  2.9933443051527013e+02  2.9944996593653116e+02  2.9959297244770659e+02  2.9977233193606651e+02  3.0000000000000000e+02  2.9896224810509995e+02  2.9902355804116479e+02  2.9909627449390041e+02  2.9918297722182552e+02  2.9928710204762859e+02  2.9941329042792972e+02  2.9956788508185554e+02  2.9975957371478205e+02  3.0000000000000000e+02  2.9913534696250298e+02  2.9924773544556672e+02  2.9938293918379509e+02  2.9954721340727008e+02  2.9974909200038860e+02  3.0000000000000000e+02  2.9953001976059119e+02  2.9974039112704747e+02  3.0000000000000000e+02  2.9964836944949991e+02  3.0000000000000000e+02  3.0000000000000000e+02  2.9964685419434494e+02  2.9965053441678100e+02  3.0000000000000000e+02  2.9965339511931990e+02  3.0000000000000000e+02  2.9965701447726065e+02  3.0000000000000000e+02  2.9966147565368334e+02  3.0000000000000000e+02  2.9966688685956171e+02  3.0000000000000000e+02  2.9967338825158964e+02  3.0000000000000000e+02  2.9968116193667277e+02  3.0000000000000000e+02  2.9969044674147824e+02  3.0000000000000000e+02  2.9970156054021760e+02  3.0000000000000000e+02  2.9971493501444547e+02  3.0000000000000000e+02  2.9973117171664410e+02  3.0000000000000000e+02  2.9975113643913562e+02  3.0000000000000000e+02  2.9977612662877527e+02  3.0000000000000000e+02  2.9980818886975754e+02  3.0000000000000000e+02  2.9985077562249120e+02  2.9999999999999994e+02  2.9991026565363074e+02  3.0000000000000000e+02  3.0000000000000000e+02  3.0000000000000000e+02  2.9934886198359322e+02  2.9935317931528851e+02  2.9935888247544062e+02  2.9936609546013284e+02  2.9937498191931041e+02  2.9938575438399113e+02  2.9939868743618285e+02  2.9941413666475466e+02  2.9943256636539286e+02  2.9945459083811437e+02  2.9948103744432819e+02  2.9951304550404393e+02  2.9955222592035597e+02  2.9960092637520432e+02  2.9966268343711835e+02  2.9974300541205565e+02  2.9985071085415888e+02  2.9999999999999994e+02  2.9909896498056253e+02  2.9910745845595829e+02  2.9911819483907465e+02  2.9913141325073036e+02  2.9914742331169737e+02  2.9916662349352481e+02  2.9918952723119628e+02  2.9921680051626760e+02  2.9924931685326504e+02  2.9928823899546177e+02  2.9933514262620002e+02  2.9939220627147375e+02  2.9946250514956347e+02  2.9955046255604407e+02  2.9966251719173772e+02  2.9980800695297279e+02  3.0000000000000000e+02  2.9910745845595858e+02  2.9889173026438533e+02  2.9888052947182342e+02  2.9890587963516930e+02  2.9892328535540616e+02  2.9894434443105604e+02  2.9896956531540491e+02  2.9899959908724185e+02  2.9903528356330594e+02  2.9907770637468866e+02  2.9912829616136264e+02  2.9918895561704602e+02  2.9926225627678230e+02  2.9935172150485118e+02  2.9946222565429150e+02  2.9960051694516039e+02  2.9977578801915939e+02  3.0000000000000000e+02  2.9872322725473373e+02  2.9870580988011147e+02  2.9874463222408326e+02  2.9877049802135770e+02  2.9880142742354053e+02  2.9883818700701329e+02  2.9888175476090265e+02  2.9893338670407974e+02  2.9899471067350692e+02  2.9906785879570953e+02  2.9915565394695835e+02  2.9926186795449678e+02  2.9939156488203241e+02  2.9955151771446708e+02  2.9975061315436221e+02  3.0000000000000000e+02  2.9862112439526709e+02  2.9865740142817589e+02  2.9870042702056287e+02  2.9875128921689060e+02  2.9881137088964738e+02  2.9888244195992786e+02  2.9896678638585172e+02  2.9906737591157241e+02  2.9918810335754279e+02  2.9933408276922853e+02  2.9951200119597024e+02  2.9973044567662265e+02  3.0000000000000000e+02  2.9864001582388744e+02  2.9870776571062783e+02  2.9878759560634046e+02  2.9888188417245919e+02  2.9899368336126292e+02  2.9912693175362568e+02  2.9928672573336513e+02  2.9947963511868642e+02  2.9971399643816977e+02  3.0000000000000000e+02  2.9881021165783682e+02  2.9893178046709187e+02  2.9907580431353227e+02  2.9924733331093933e+02  2.9945282145095206e+02  2.9970040652548232e+02  3.0000000000000000e+02  2.9921434482453446e+02  2.9943043154026458e+02  2.9968908004733072e+02  3.0000000000000000e+02  3.0000000000000000e+02  3.0000000000000000e+02  3.0000000000000000e+02  2.9959380986017328e+02  3.0000000000000000e+02  2.9959491726306675e+02  3.0000000000000000e+02  2.9964566028628889e+02  2.9959344311020175e+02  3.0000000000000000e+02  3.0000000000000000e+02  2.9964595723678235e+02  2.9959380974523572e+02  3.0000000000000000e+02  2.9959491701608397e+02  3.0000000000000000e+02  2.9959678700499956e+02  3.0000000000000000e+02  2.9959945759277792e+02  3.0000000000000000e+02  2.9960298417172760e+02  3.0000000000000000e+02  2.9960744227309726e+02  3.0000000000000000e+02  2.9961293138276437e+02  3.0000000000000000e+02  2.9961958037309319e+02  3.0000000000000000e+02  2.9962755521592243e+02  3.0000000000000000e+02  2.9963707002077422e+02  3.0000000000000000e+02  2.9964840307071989e+02  3.0000000000000000e+02  2.9966192060907753e+02  3.0000000000000000e+02  2.9967811307001608e+02  3.0000000000000000e+02  2.9969765211506638e+02  3.0000000000000000e+02  2.9972148425313264e+02  3.0000000000000000e+02  2.9975099313265417e+02  3.0000000000000000e+02  2.9978830237541428e+02  3.0000000000000000e+02  2.9983689977417350e+02  2.9999999999999994e+02  2.9990309894604809e+02  3.0000000000000000e+02  3.0000000000000000e+02  3.0000000000000000e+02  2.9924163511117052e+02  2.9924090396864864e+02  2.9924384309856077e+02  2.9924757155611667e+02  2.9934583968472970e+02  2.9925289528379938e+02  2.9925992357753478e+02  2.9926880531175516e+02  2.9927973629639126e+02  2.9929296970362213e+02  2.9930883078625533e+02  2.9932773777695519e+02  2.9935023193186112e+02  2.9937702145799727e+02  2.9940904707755681e+02  2.9944758223577765e+02  2.9949439036838987e+02  2.9955197890740425e+02  2.9962402172144760e+02  2.9971607906033398e+02  2.9983682743417694e+02  2.9999999999999994e+02  2.9894471468740846e+02  2.9895264426633673e+02  2.9909253282141606e+02  2.9896310883208037e+02  2.9897632645537379e+02  2.9899258331957162e+02  2.9901224836551751e+02  2.9903579377891759e+02  2.9906382374070631e+02  2.9909711512263681e+02  2.9913667577758309e+02  2.9918382915169644e+02  2.9924033871574227e+02  2.9930859286338978e+02  2.9939188073365187e+02  2.9949479971734809e+02  2.9962383485299080e+02  2.9978809862372890e+02  3.0000000000000000e+02  2.9869201165125713e+02  2.9868155100768871e+02  2.9870580988011159e+02  2.9872322725473356e+02  2.9874463222408315e+02  2.9877049802135770e+02  2.9880142742354047e+02  2.9883818700701323e+02  2.9888175476090254e+02  2.9893338670407962e+02  2.9899471067350675e+02  2.9906785879570953e+02  2.9915565394695841e+02  2.9926186795449684e+02  2.9939156488203241e+02  2.9955151771446697e+02  2.9975061315436204e+02  3.0000000000000000e+02  2.9848234142540986e+02  2.9850378054040840e+02  2.9853010327374278e+02  2.9856187392897408e+02  2.9859980743054456e+02  2.9864480685180905e+02  2.9869801460187705e+02  2.9876088237693557e+02  2.9883526678556484e+02  2.9892355949517832e+02  2.9902886195419291e+02  2.9915521289093579e+02  2.9930786658249349e+02  2.9949359126880012e+02  2.9972089620418114e+02  3.0000000000000000e+02  2.9831322474297860e+02  2.9834419267161059e+02  2.9838152168096269e+02  2.9842602002358564e+02  2.9847870160787619e+02  2.9854083820633770e+02  2.9861402929071613e+02  2.9870029508163930e+02  2.9880219936580085e+02  2.9892300842391671e+02  2.9906688891013431e+02  2.9923913654975422e+02  2.9944640224110958e+02  2.9969683530809925e+02  3.0000000000000000e+02  2.9827602091860609e+02  2.9833578523510755e+02  2.9840610013752740e+02  2.9848867239692657e+02  2.9858563389801293e+02  2.9869965574199546e+02  2.9883409224866182e+02  2.9899315538956205e+02  2.9918211024512647e+02  2.9940746067814007e+02  2.9967705619623388e+02  3.0000000000000000e+02  2.9848796966576100e+02  2.9861269832069695e+02  2.9875904308562218e+02  2.9893121551379073e+02  2.9913441994444133e+02  2.9937501781192321e+02  2.9966062015473830e+02  3.0000000000000000e+02  2.9887895887786078e+02  2.9909431943667249e+02  2.9934781240220451e+02  2.9964686195484438e+02  3.0000000000000000e+02  2.9954925778249145e+02  3.0000000000000000e+02  3.0000000000000000e+02  2.9955056553354154e+02  2.9954882461742568e+02  3.0000000000000000e+02  2.9954925765942312e+02  3.0000000000000000e+02  2.9955056526853286e+02  3.0000000000000000e+02  2.9955277288785692e+02  3.0000000000000000e+02  2.9955592410583165e+02  3.0000000000000000e+02  2.9956008253148866e+02  3.0000000000000000e+02  2.9956533465625915e+02  3.0000000000000000e+02  2.9957179398171627e+02  3.0000000000000000e+02  2.9957960684494526e+02  3.0000000000000000e+02  2.9958896060341431e+02  3.0000000000000000e+02  2.9960009520324786e+02  3.0000000000000000e+02  2.9961331974593901e+02  3.0000000000000000e+02  2.9962903667392368e+02  3.0000000000000000e+02  2.9964777799050398e+02  3.0000000000000000e+02  2.9967026133515128e+02  3.0000000000000000e+02  2.9969748070795043e