<?xml version="1.0"?>
<VTKFile type="UnstructuredGrid"  version="0.1"  >
<UnstructuredGrid>
<Piece  NumberOfPoints="18254" NumberOfCells="96440">
<Points>
<DataArray  type="Float64"  NumberOfComponents="3"  format="ascii">0 0 0  0.025 0 0  0.025 0.025 0  0.025 0.025 0.025  0.025 0 0.025  0 0 0.025  0 0.025 0  0 0.025 0.025  0.05 0 0  0.05 0.025 0  0.05 0.025 0.025  0.05 0 0.025  0.075 0 0  0.075 0.025 0  0.075 0.025 0.025  0.075 0 0.025  0.1 0 0  0.1 0.025 0  0.1 0.025 0.025  0.1 0 0.025  0.125 0 0  0.125 0.025 0  0.125 0.025 0.025  0.125 0 0.025  0.15 0 0  0.15 0.025 0  0.15 0.025 0.025  0.15 0 0.025  0.175 0 0.025  0.175 0.025 0.025  0.175 0.025 0  0.025 0.05 0  0.025 0.05 0.025  0 0.05 0  0 0.05 0.025  0.05 0.05 0  0.05 0.05 0.025  0.075 0.05 0  0.075 0.05 0.025  0.1 0.05 0  0.1 0.05 0.025  0.125 0.05 0  0.125 0.05 0.025  0.15 0.05 0  0.15 0.05 0.025  0.175 0.05 0  0.175 0.05 0.025  0.025 0.075 0  0.025 0.075 0.025  0 0.075 0  0 0.075 0.025  0.05 0.075 0  0.05 0.075 0.025  0.075 0.075 0  0.075 0.075 0.025  0.1 0.075 0  0.1 0.075 0.025  0.125 0.075 0  0.125 0.075 0.025  0.15 0.075 0  0.15 0.075 0.025  0.175 0.075 0  0.175 0.075 0.025  0.2 0.075 0.025  0.025 0.1 0  0.025 0.1 0.025  0 0.1 0  0 0.1 0.025  0.05 0.1 0  0.05 0.1 0.025  0.075 0.1 0  0.075 0.1 0.025  0.1 0.1 0  0.1 0.1 0.025  0.125 0.1 0  0.125 0.1 0.025  0.15 0.1 0  0.15 0.1 0.025  0.175 0.1 0  0.175 0.1 0.025  0.2 0.1 0.025  0.2 0.1 0  0.025 0.125 0  0.025 0.125 0.025  0 0.125 0  0 0.125 0.025  0.05 0.125 0  0.05 0.125 0.025  0.075 0.125 0  0.075 0.125 0.025  0.1 0.125 0  0.1 0.125 0.025  0.125 0.125 0  0.125 0.125 0.025  0.15 0.125 0  0.15 0.125 0.025  0.175 0.125 0  0.175 0.125 0.025  0.2 0.125 0  0.2 0.125 0.025  0.025 0.15 0  0.025 0.15 0.025  0 0.15 0  0 0.15 0.025  0.05 0.15 0  0.05 0.15 0.025  0.075 0.15 0  0.075 0.15 0.025  0.1 0.15 0  0.1 0.15 0.025  0.125 0.15 0  0.125 0.15 0.025  0.15 0.15 0  0.15 0.15 0.025  0.175 0.15 0  0.175 0.15 0.025  0.2 0.15 0  0.2 0.15 0.025  0.225 0.15 0  0.225 0.15 0.025  0.025 0.175 0  0.025 0.175 0.025  0 0.175 0  0 0.175 0.025  0.05 0.175 0  0.05 0.175 0.025  0.075 0.175 0  0.075 0.175 0.025  0.1 0.175 0  0.1 0.175 0.025  0.125 0.175 0  0.125 0.175 0.025  0.15 0.175 0  0.15 0.175 0.025  0.175 0.175 0  0.175 0.175 0.025  0.2 0.175 0  0.2 0.175 0.025  0.225 0.175 0  0.225 0.175 0.025  0.25 0.175 0.025  0.025 0.2 0  0.025 0.2 0.025  0 0.2 0  0 0.2 0.025  0.05 0.2 0  0.05 0.2 0.025  0.075 0.2 0  0.075 0.2 0.025  0.1 0.2 0  0.1 0.2 0.025  0.125 0.2 0  0.125 0.2 0.025  0.15 0.2 0  0.15 0.2 0.025  0.175 0.2 0  0.175 0.2 0.025  0.2 0.2 0  0.2 0.2 0.025  0.225 0.2 0  0.225 0.2 0.025  0.25 0.2 0.025  0.25 0.2 0  0.025 0.225 0  0.025 0.225 0.025  0 0.225 0  0 0.225 0.025  0.05 0.225 0  0.05 0.225 0.025  0.075 0.225 0  0.075 0.225 0.025  0.1 0.225 0  0.1 0.225 0.025  0.125 0.225 0  0.125 0.225 0.025  0.15 0.225 0  0.15 0.225 0.025  0.175 0.225 0  0.175 0.225 0.025  0.2 0.225 0  0.2 0.225 0.025  0.225 0.225 0  0.225 0.225 0.025  0.25 0.225 0  0.25 0.225 0.025  0.025 0.25 0  0.025 0.25 0.025  0 0.25 0  0 0.25 0.025  0.05 0.25 0  0.05 0.25 0.025  0.075 0.25 0  0.075 0.25 0.025  0.1 0.25 0  0.1 0.25 0.025  0.125 0.25 0  0.125 0.25 0.025  0.15 0.25 0  0.15 0.25 0.025  0.175 0.25 0  0.175 0.25 0.025  0.2 0.25 0  0.2 0.25 0.025  0.225 0.25 0  0.225 0.25 0.025  0.25 0.25 0  0.25 0.25 0.025  0.275 0.25 0.025  0.025 0.275 0  0.025 0.275 0.025  0 0.275 0  0 0.275 0.025  0.05 0.275 0  0.05 0.275 0.025  0.075 0.275 0  0.075 0.275 0.025  0.1 0.275 0  0.1 0.275 0.025  0.125 0.275 0  0.125 0.275 0.025  0.15 0.275 0  0.15 0.275 0.025  0.175 0.275 0  0.175 0.275 0.025  0.2 0.275 0  0.2 0.275 0.025  0.225 0.275 0  0.225 0.275 0.025  0.25 0.275 0  0.25 0.275 0.025  0.275 0.275 0.025  0.275 0.275 0  0.025 0.3 0  0.025 0.3 0.025  0 0.3 0  0 0.3 0.025  0.05 0.3 0  0.05 0.3 0.025  0.075 0.3 0  0.075 0.3 0.025  0.1 0.3 0  0.1 0.3 0.025  0.125 0.3 0  0.125 0.3 0.025  0.15 0.3 0  0.15 0.3 0.025  0.175 0.3 0  0.175 0.3 0.025  0.2 0.3 0  0.2 0.3 0.025  0.225 0.3 0  0.225 0.3 0.025  0.25 0.3 0  0.25 0.3 0.025  0.275 0.3 0  0.275 0.3 0.025  0.025 0.325 0  0.025 0.325 0.025  0 0.325 0  0 0.325 0.025  0.05 0.325 0  0.05 0.325 0.025  0.075 0.325 0  0.075 0.325 0.025  0.1 0.325 0  0.1 0.325 0.025  0.125 0.325 0  0.125 0.325 0.025  0.15 0.325 0  0.15 0.325 0.025  0.175 0.325 0  0.175 0.325 0.025  0.2 0.325 0  0.2 0.325 0.025  0.225 0.325 0  0.225 0.325 0.025  0.25 0.325 0  0.25 0.325 0.025  0.275 0.325 0  0.275 0.325 0.025  0.025 0.35 0  0.025 0.35 0.025  0 0.35 0  0 0.35 0.025  0.05 0.35 0  0.05 0.35 0.025  0.075 0.35 0  0.075 0.35 0.025  0.1 0.35 0  0.1 0.35 0.025  0.125 0.35 0  0.125 0.35 0.025  0.15 0.35 0  0.15 0.35 0.025  0.175 0.35 0  0.175 0.35 0.025  0.2 0.35 0  0.2 0.35 0.025  0.225 0.35 0  0.225 0.35 0.025  0.25 0.35 0  0.25 0.35 0.025  0.275 0.35 0  0.275 0.35 0.025  0.3 0.35 0.025  0.025 0.375 0  0.025 0.375 0.025  0 0.375 0  0 0.375 0.025  0.05 0.375 0  0.05 0.375 0.025  0.075 0.375 0  0.075 0.375 0.025  0.1 0.375 0  0.1 0.375 0.025  0.125 0.375 0  0.125 0.375 0.025  0.15 0.375 0  0.15 0.375 0.025  0.175 0.375 0  0.175 0.375 0.025  0.2 0.375 0  0.2 0.375 0.025  0.225 0.375 0  0.225 0.375 0.025  0.25 0.375 0  0.25 0.375 0.025  0.275 0.375 0  0.275 0.375 0.025  0.3 0.375 0.025  0.025 0.4 0  0.025 0.4 0.025  0 0.4 0  0 0.4 0.025  0.05 0.4 0  0.05 0.4 0.025  0.075 0.4 0  0.075 0.4 0.025  0.1 0.4 0  0.1 0.4 0.025  0.125 0.4 0  0.125 0.4 0.025  0.15 0.4 0  0.15 0.4 0.025  0.175 0.4 0  0.175 0.4 0.025  0.2 0.4 0  0.2 0.4 0.025  0.225 0.4 0  0.225 0.4 0.025  0.25 0.4 0  0.25 0.4 0.025  0.275 0.4 0  0.275 0.4 0.025  0.3 0.4 0.025  0.3 0.4 0  0.025 0.425 0  0.025 0.425 0.025  0 0.425 0  0 0.425 0.025  0.05 0.425 0  0.05 0.425 0.025  0.075 0.425 0  0.075 0.425 0.025  0.1 0.425 0  0.1 0.425 0.025  0.125 0.425 0  0.125 0.425 0.025  0.15 0.425 0  0.15 0.425 0.025  0.175 0.425 0  0.175 0.425 0.025  0.2 0.425 0  0.2 0.425 0.025  0.225 0.425 0  0.225 0.425 0.025  0.25 0.425 0  0.25 0.425 0.025  0.275 0.425 0  0.275 0.425 0.025  0.3 0.425 0  0.3 0.425 0.025  0.025 0.45 0  0.025 0.45 0.025  0 0.45 0  0 0.45 0.025  0.05 0.45 0  0.05 0.45 0.025  0.075 0.45 0  0.075 0.45 0.025  0.1 0.45 0  0.1 0.45 0.025  0.125 0.45 0  0.125 0.45 0.025  0.15 0.45 0  0.15 0.45 0.025  0.175 0.45 0  0.175 0.45 0.025  0.2 0.45 0  0.2 0.45 0.025  0.225 0.45 0  0.225 0.45 0.025  0.25 0.45 0  0.25 0.45 0.025  0.275 0.45 0  0.275 0.45 0.025  0.3 0.45 0  0.3 0.45 0.025  0.025 0.475 0  0.025 0.475 0.025  0 0.475 0  0 0.475 0.025  0.05 0.475 0  0.05 0.475 0.025  0.075 0.475 0  0.075 0.475 0.025  0.1 0.475 0  0.1 0.475 0.025  0.125 0.475 0  0.125 0.475 0.025  0.15 0.475 0  0.15 0.475 0.025  0.175 0.475 0  0.175 0.475 0.025  0.2 0.475 0  0.2 0.475 0.025  0.225 0.475 0  0.225 0.475 0.025  0.25 0.475 0  0.25 0.475 0.025  0.275 0.475 0  0.275 0.475 0.025  0.3 0.475 0  0.3 0.475 0.025  0.325 0.475 0.025  0.025 0.5 0  0.025 0.5 0.025  0 0.5 0  0 0.5 0.025  0.05 0.5 0  0.05 0.5 0.025  0.075 0.5 0  0.075 0.5 0.025  0.1 0.5 0  0.1 0.5 0.025  0.125 0.5 0  0.125 0.5 0.025  0.15 0.5 0  0.15 0.5 0.025  0.175 0.5 0  0.175 0.5 0.025  0.2 0.5 0  0.2 0.5 0.025  0.225 0.5 0  0.225 0.5 0.025  0.25 0.5 0  0.25 0.5 0.025  0.275 0.5 0  0.275 0.5 0.025  0.3 0.5 0  0.3 0.5 0.025  0.325 0.5 0.025  0.325 0.5 0  0.025 0.525 0  0.025 0.525 0.025  0 0.525 0  0 0.525 0.025  0.05 0.525 0  0.05 0.525 0.025  0.075 0.525 0  0.075 0.525 0.025  0.1 0.525 0  0.1 0.525 0.025  0.125 0.525 0  0.125 0.525 0.025  0.15 0.525 0  0.15 0.525 0.025  0.175 0.525 0  0.175 0.525 0.025  0.2 0.525 0  0.2 0.525 0.025  0.225 0.525 0  0.225 0.525 0.025  0.25 0.525 0  0.25 0.525 0.025  0.275 0.525 0  0.275 0.525 0.025  0.3 0.525 0  0.3 0.525 0.025  0.325 0.525 0  0.325 0.525 0.025  0.025 0.55 0  0.025 0.55 0.025  0 0.55 0  0 0.55 0.025  0.05 0.55 0  0.05 0.55 0.025  0.075 0.55 0  0.075 0.55 0.025  0.1 0.55 0  0.1 0.55 0.025  0.125 0.55 0  0.125 0.55 0.025  0.15 0.55 0  0.15 0.55 0.025  0.175 0.55 0  0.175 0.55 0.025  0.2 0.55 0  0.2 0.55 0.025  0.225 0.55 0  0.225 0.55 0.025  0.25 0.55 0  0.25 0.55 0.025  0.275 0.55 0  0.275 0.55 0.025  0.3 0.55 0  0.3 0.55 0.025  0.325 0.55 0  0.325 0.55 0.025  0.35 0.55 0  0.35 0.55 0.025  0.025 0.575 0  0.025 0.575 0.025  0 0.575 0  0 0.575 0.025  0.05 0.575 0  0.05 0.575 0.025  0.075 0.575 0  0.075 0.575 0.025  0.1 0.575 0  0.1 0.575 0.025  0.125 0.575 0  0.125 0.575 0.025  0.15 0.575 0  0.15 0.575 0.025  0.175 0.575 0  0.175 0.575 0.025  0.2 0.575 0  0.2 0.575 0.025  0.225 0.575 0  0.225 0.575 0.025  0.25 0.575 0  0.25 0.575 0.025  0.275 0.575 0  0.275 0.575 0.025  0.3 0.575 0  0.3 0.575 0.025  0.325 0.575 0  0.325 0.575 0.025  0.35 0.575 0  0.35 0.575 0.025  0.025 0.6 0  0.025 0.6 0.025  0 0.6 0  0 0.6 0.025  0.05 0.6 0  0.05 0.6 0.025  0.075 0.6 0  0.075 0.6 0.025  0.1 0.6 0  0.1 0.6 0.025  0.125 0.6 0  0.125 0.6 0.025  0.15 0.6 0  0.15 0.6 0.025  0.175 0.6 0  0.175 0.6 0.025  0.2 0.6 0  0.2 0.6 0.025  0.225 0.6 0  0.225 0.6 0.025  0.25 0.6 0  0.25 0.6 0.025  0.275 0.6 0  0.275 0.6 0.025  0.3 0.6 0  0.3 0.6 0.025  0.325 0.6 0  0.325 0.6 0.025  0.35 0.6 0  0.35 0.6 0.025  0.375 0.6 0.025  0.025 0.625 0  0.025 0.625 0.025  0 0.625 0  0 0.625 0.025  0.05 0.625 0  0.05 0.625 0.025  0.075 0.625 0  0.075 0.625 0.025  0.1 0.625 0  0.1 0.625 0.025  0.125 0.625 0  0.125 0.625 0.025  0.15 0.625 0  0.15 0.625 0.025  0.175 0.625 0  0.175 0.625 0.025  0.2 0.625 0  0.2 0.625 0.025  0.225 0.625 0  0.225 0.625 0.025  0.25 0.625 0  0.25 0.625 0.025  0.275 0.625 0  0.275 0.625 0.025  0.3 0.625 0  0.3 0.625 0.025  0.325 0.625 0  0.325 0.625 0.025  0.35 0.625 0  0.35 0.625 0.025  0.375 0.625 0.025  0.025 0.65 0  0.025 0.65 0.025  0 0.65 0  0 0.65 0.025  0.05 0.65 0  0.05 0.65 0.025  0.075 0.65 0  0.075 0.65 0.025  0.1 0.65 0  0.1 0.65 0.025  0.125 0.65 0  0.125 0.65 0.025  0.15 0.65 0  0.15 0.65 0.025  0.175 0.65 0  0.175 0.65 0.025  0.2 0.65 0  0.2 0.65 0.025  0.225 0.65 0  0.225 0.65 0.025  0.25 0.65 0  0.25 0.65 0.025  0.275 0.65 0  0.275 0.65 0.025  0.3 0.65 0  0.3 0.65 0.025  0.325 0.65 0  0.325 0.65 0.025  0.35 0.65 
[...]
<PointData  Scalars="f_8"> 
<DataArray  type="Float64"  Name="f_8"  format="ascii">1.0000000000000002e+01  9.7493351252536709e+00  9.7493209867645074e+00  9.7493056833750220e+00  9.7493209867645056e+00  1.0000000000000000e+01  1.0000000000000000e+01  1.0000000000000000e+01  9.4987183212530972e+00  9.4986963387961065e+00  9.4986749341305927e+00  9.4986963387960994e+00  9.2481709518305166e+00  9.2481446722848926e+00  9.2481203713454523e+00  9.2481446722848908e+00  8.9977048262602697e+00  8.9976763441596805e+00  8.9976507460298389e+00  8.9976763441596805e+00  8.7473259258367868e+00  8.7472965900805111e+00  8.7472706815602841e+00  8.7472965900805093e+00  8.4970364079090803e+00  8.4970071448612927e+00  8.4969815995560563e+00  8.4970071448612927e+00  8.2468072453469414e+00  8.2467825452449013e+00  8.2468072453469414e+00  9.7492933750701205e+00  9.7492730151234159e+00  1.0000000000000000e+01  1.0000000000000000e+01  9.4986508012734312e+00  9.4986241556736921e+00  9.2480883200735935e+00  9.2480595475246457e+00  8.9976139734048477e+00  8.9975847355823184e+00  8.7472314778756886e+00  8.7472026454729939e+00  8.4969415970411930e+00  8.4969137116068776e+00  8.2467429262083307e+00  8.2467163555220289e+00  9.7492574321757495e+00  9.7492321231662800e+00  1.0000000000000000e+01  1.0000000000000000e+01  9.4985886221927149e+00  9.4985558351250230e+00  9.2480087495458267e+00  9.2479739568032606e+00  8.9975238345082964e+00  8.9974891088127507e+00  8.7471358240333785e+00  8.7471021271134806e+00  8.4968441564483825e+00  8.4968120109439198e+00  8.2466464673395610e+00  8.2466161880701527e+00  7.9965108179649960e+00  9.7492167817108957e+00  9.7491871845586253e+00  9.9999999999999982e+00  1.0000000000000000e+01  9.4985160700445039e+00  9.4984774762549726e+00  9.2479134816349440e+00  9.2478725877605363e+00  8.9974137289957863e+00  8.9973731378167212e+00  8.7470171736956175e+00  8.7469780603938041e+00  8.4967218541509286e+00  8.4966848105679116e+00  8.2465242816874067e+00  8.2464896270627666e+00  7.9963877676724557e+00  7.9964198560170177e+00  9.7491738369226582e+00  9.7491405909855331e+00  9.9999999999999982e+00  1.0000000000000000e+01  9.4984378330349468e+00  9.4983940398740661e+00  9.2478087710650048e+00  9.2477621639035448e+00  8.9972907285394612e+00  8.9972444393176065e+00  8.7468828458906920e+00  8.7468383143424671e+00  8.4965818832499505e+00  8.4965398246118244e+00  8.2463832121494445e+00  8.2463439938667520e+00  7.9962812801949594e+00  7.9962450883561536e+00  9.7491302557935242e+00  9.7490939015302391e+00  1.0000000000000000e+01  1.0000000000000000e+01  9.4983573159743582e+00  9.4983089465707717e+00  9.2476994737840688e+00  9.2476476803366783e+00  8.9971606721071353e+00  8.9971090684527333e+00  8.7467392078932118e+00  8.7466895061919629e+00  8.4964307756612119e+00  8.4963838404245511e+00  8.2462296926771046e+00  8.2461859674933109e+00  7.9961294607062010e+00  7.9960891647042223e+00  7.7461230593072390e+00  7.7460862863882118e+00  9.7490872177490129e+00  9.7490482044228486e+00  9.9999999999999982e+00  1.0000000000000000e+01  9.4982770067787001e+00  9.4982246340627619e+00  9.2475892919840401e+00  9.2475328600566389e+00  8.9970282148293403e+00  8.9969717600225145e+00  8.7465915495526705e+00  8.7465370424416644e+00  8.4962741561985577e+00  8.4962226174010205e+00  8.2460694346570236e+00  8.2460213984678141e+00  7.9959700045016051e+00  7.9959257389886265e+00  7.7459680515693403e+00  7.7459276732309101e+00  7.4960190568366265e+00  9.7490455830408624e+00  9.7490042870002860e+00  1.0000000000000002e+01  9.9999999999999982e+00  9.4981987454878531e+00  9.4981428803184915e+00  9.2474810408579717e+00  9.2474204956673987e+00  8.9968970141871782e+00  8.9968361896962179e+00  8.7464441642450037e+00  8.7463852660758725e+00  8.4961167285185279e+00  8.4960609289452762e+00  8.2459073418722539e+00  8.2458552708141912e+00  7.9958078367566312e+00  7.9957598199888382e+00  7.7458096551280340e+00  7.7457658414014041e+00  7.4958645042946497e+00  7.4959040708299280e+00  9.7490059889648641e+00  9.7489627296292962e+00  1.0000000000000000e+01  1.0000000000000000e+01  9.4981239067863967e+00  9.4980650015383148e+00  9.2473768644292100e+00  9.2473126941225896e+00  8.9967699247791089e+00  8.9967052020804630e+00  8.7463004904751038e+00  8.7462376298259699e+00  8.4959623544747256e+00  8.4959026693379442e+00  8.2457475332302863e+00  8.2456917477484950e+00  7.9956471790905042e+00  7.9955956801167725e+00  7.7456520604940282e+00  7.7456050345369247e+00  7.4957528225830554e+00  7.4957103353532109e+00  9.7489689116078022e+00  9.7489239638194309e+00  1.0000000000000000e+01  1.0000000000000002e+01  9.4980535242388289e+00  9.4979919802602790e+00  9.2472783981687314e+00  9.2472110510249408e+00  8.9966491661457457e+00  8.9965809944563340e+00  8.7461632582901423e+00  8.7460968593072206e+00  8.4958141647452585e+00  8.4957509798421409e+00  8.2455934140486793e+00  8.2455342563447118e+00  7.9954915848971666e+00  7.9954369019014280e+00  7.7454988517999297e+00  7.7454488700282393e+00  7.4956052862906555e+00  7.4955600965465488e+00  7.2457606330285795e+00  9.7489347076831034e+00  9.7488883110694378e+00  1.0000000000000000e+01  9.9999999999999982e+00  9.4979883769735398e+00  9.4979245523486604e+00  9.2471868898071712e+00  9.2471167761757425e+00  8.9965364584614491e+00  8.9964652603629816e+00  8.7460346207612893e+00  8.7459650937688806e+00  8.4956746724944789e+00  8.4956083716267763e+00  8.2454477649825098e+00  8.2453855849171127e+00  7.9953440021315085e+00  7.9952864480892485e+00  7.7453530456202095e+00  7.7453003839653860e+00  7.4954644557728418e+00  7.4954168038538862e+00  7.2456252646613617e+00  7.2456678822100526e+00  9.7489036441364227e+00  9.7488560102685700e+00  1.0000000000000000e+01  9.9999999999999982e+00  9.4979290518947366e+00  9.4978632684811224e+00  9.2471032895493863e+00  9.2470307855939087e+00  8.9964331297914590e+00  8.9963593008233982e+00  8.7459162654282672e+00  8.7458440027935413e+00  8.4955458780389499e+00  8.4954768361233128e+00  8.2453128326185077e+00  8.2452479791340494e+00  7.9952068463167798e+00  7.9951467396542748e+00  7.7452171458759862e+00  7.7451620903825864e+00  7.4953328452026327e+00  7.4952829846242075e+00  7.2455431604237361e+00  7.2454985370542175e+00  9.7488759198062596e+00  9.7488272377704046e+00  1.0000000000000000e+01  1.0000000000000002e+01  9.4978759894744762e+00  9.4978085390169475e+00  9.2470283181831174e+00  9.2469537701665399e+00  8.9963402003119572e+00  8.9962641105471413e+00  8.7458095062171388e+00  8.7457348812249993e+00  8.4954293602543469e+00  8.4953579399727150e+00  8.2451904139430070e+00  8.2451232301366808e+00  7.9950820740004520e+00  7.9950197327283901e+00  7.7450932044215630e+00  7.7450360449799804e+00  7.4952125366916738e+00  7.4951607278888206e+00  7.2454289076329506e+00  7.2453825092075679e+00  9.7488516816614830e+00  9.7488021224888595e+00  1.0000000000000000e+01  1.0000000000000000e+01  9.4978295181428081e+00  9.4977606675296684e+00  9.2469625190673277e+00  9.2468862476444738e+00  8.9962584483885664e+00  8.9961804449677079e+00  8.7457153581668337e+00  8.7456387256232677e+00  8.4953263540318442e+00  8.4952529046976419e+00  8.2450819313170047e+00  8.2450127519424026e+00  7.9949712513906377e+00  7.9949069896626925e+00  7.7449828809949546e+00  7.7449239073508593e+00  7.4951052305547643e+00  7.4950517366722069e+00  7.2453268123803163e+00  7.2452788743850842e+00  6.9955940071130920e+00  9.7488310371705786e+00  9.7487807574415832e+00  1.0000000000000000e+01  1.0000000000000000e+01  9.4977898804761356e+00  9.4977198762750579e+00  9.2469062981355599e+00  9.2468286024443955e+00  8.9961884624161943e+00  8.9961088725105895e+00  8.7456345975973786e+00  8.7455562954204673e+00  8.4952378145914640e+00  8.4951626724067903e+00  8.2449884969001932e+00  8.2449176474882826e+00  7.9948756155672314e+00  7.9948097419324693e+00  7.7448874988600940e+00  7.7448269982759737e+00  7.4950122940071395e+00  7.4949573782228196e+00  7.2452382428643247e+00  7.2451890027037056e+00  6.9955102887837892e+00  9.7488140637976191e+00  9.7487632086453626e+00  1.0000000000000002e+01  1.0000000000000000e+01  9.4977572532744237e+00  9.4976863256906228e+00  9.2468599547674266e+00  9.2467811162585072e+00  8.9961306813759734e+00  8.9960498153066535e+00  8.7455678100902734e+00  8.7454881614581321e+00  8.4951644699621376e+00  8.4950879591480977e+00  8.2449109665948175e+00  8.2448387636552063e+00  7.9947961271799111e+00  7.9947289440165790e+00  7.7448080941359683e+00  7.7447463502470466e+00  7.4949348056786897e+00  7.4948787296697486e+00  7.2451642858350063e+00  7.2451139810774521e+00  6.9954403018989986e+00  6.9954848130766116e+00  9.7488008162809496e+00  9.7487495219578033e+00  1.0000000000000000e+01  1.0000000000000000e+01  9.4977317629227400e+00  9.4976601293067677e+00  9.2468237055062890e+00  9.2467439915162224e+00  8.9960854262954069e+00  8.9960035806752412e+00  8.7455154282322471e+00  8.7454347440375333e+00  8.4951068629826292e+00  8.4950292974559467e+00  8.2448499840676508e+00  8.2447767360087312e+00  7.9947335143669100e+00  7.9946653181361667e+00  7.7447454578232318e+00  7.7446827503502051e+00  7.4948735944078066e+00  7.4948166176591249e+00  7.2451057812815014e+00  7.2450546486962697e+00  6.9954301296939780e+00  6.9953848710276887e+00  9.7487913321357773e+00  9.7487397282645158e+00  1.0000000000000002e+01  1.0000000000000000e+01  9.4977134969820920e+00  9.4976413649961451e+00  9.2467977019991743e+00  9.2467173691024520e+00  8.9960529242048448e+00  8.9959703850446484e+00  8.7454777606507879e+00  8.7453963421173775e+00  8.4950653840278711e+00  8.4949870694160907e+00  8.2448060155563994e+00  8.2447320240798643e+00  7.9946883080339894e+00  7.9946193900966094e+00  7.7447001701274534e+00  7.7446367751953513e+00  7.4948292714660862e+00  7.4947716511895406e+00  7.2450633517412211e+00  7.2450116269207943e+00  6.9953904035769146e+00  6.9953446094544054e+00  9.7487856356794254e+00  9.7487338472822387e+00  1.0000000000000000e+01  1.0000000000000000e+01  9.4977025126524754e+00  9.4976300831874116e+00  9.2467820441132158e+00  9.2467013412979799e+00  8.9960333257326823e+00  8.9959503714927873e+00  8.7454550134945244e+00  8.7453731548748390e+00  8.4950402954456710e+00  8.4949615313081352e+00  8.2447793761404249e+00  8.2447049379425721e+00  7.9946608687956813e+00  7.9945915166060617e+00  7.7446726269943804e+00  7.7446088178685031e+00  7.4948022557855749e+00  7.4947442472684713e+00  7.2450374255344396e+00  7.2449853429356361e+00  6.9953660584053097e+00  6.9953199403506439e+00  6.7457362601617659e+00  9.7487837407793894e+00  9.7487318901591689e+00  1.0000000000000000e+01  9.9999999999999982e+00  9.4976988425395632e+00  9.4976263124617173e+00  9.2467767888772823e+00  9.2466959605938897e+00  8.9960267171346064e+00  8.9959436217253188e+00  8.7454473051908188e+00  8.7453652964991608e+00  8.4950317484542239e+00  8.4949528306222195e+00  8.2447702480447163e+00  8.2446956567063943e+00  7.9946514059034586e+00  7.9945819044431836e+00  7.7446630589172454e+00  7.7445991070096802e+00  7.4947927920001964e+00  7.4947346492368858e+00  7.2450282535304886e+00  7.2449760467959221e+00  6.9953573430585756e+00  6.9953111121679887e+00  6.7457280433483584e+00  6.7457683137912623e+00  9.7487856524519696e+00  9.7487338609883878e+00  1.0000000000000002e+01  1.0000000000000002e+01  9.4977024980004536e+00  9.4976300627981889e+00  9.2467819556665720e+00  9.2467012447981141e+00  8.9960331272777285e+00  8.9959501630233252e+00  8.7454546750388964e+00  8.7453728047973396e+00  8.4950397930219470e+00  8.4949610159991398e+00  8.2447786913957497e+00  8.2447042393734939e+00  7.9946599884306204e+00  7.9945906217740887e+00  7.7446715421163255e+00  7.7446077181444126e+00  7.4948009612358009e+00  7.4947429377205905e+00  7.2450359192372416e+00  7.2449838216781419e+00  6.9953643407752883e+00  6.9953182079518772e+00  6.7457745033785050e+00  6.7457343191362469e+00  9.7487913673822977e+00  9.7487397572983809e+00  9.9999999999999982e+00  1.0000000000000000e+01  9.4977134702206953e+00  9.4976413266151187e+00  9.2467975278620358e+00  9.2467171786652642e+00  8.9960525298714593e+00  8.9959699704577574e+00  8.7454770859564768e+00  8.7453956439404781e+00  8.4950643810333393e+00  8.4949860404121775e+00  8.2448046476809349e+00  8.2447306283283375e+00  7.9946865488862224e+00  7.9946176018077582e+00  7.7446980021697049e+00  7.7446345773635770e+00  7.4948266846337637e+00  7.4947690342068940e+00  7.2450603421151971e+00  7.2450085872481678e+00  6.9953869721806541e+00  6.9953411484212413e+00  6.7457949232855610e+00  6.7457550121134879e+00  6.4962729370955516e+00  6.4962388883953386e+00  9.7488008733876885e+00  9.7487495695402089e+00  1.0000000000000000e+01  1.0000000000000000e+01  9.4977317290689047e+00  9.4976600776509024e+00  9.2468234510547767e+00  9.2467437121191978e+00  8.9960848410336016e+00  8.9960029644604393e+00  8.7455144214768961e+00  8.7454337014509971e+00  8.4951053628342645e+00  8.4950277576886606e+00  8.2448479359902329e+00  8.2447746455442275e+00  7.9947308793126952e+00  7.9946626388502500e+00  7.7447422101209344e+00  7.7446794573827127e+00  7.4948697196041589e+00  7.4948126972476166e+00  7.2451012740854406e+00  7.2450500961197868e+00  6.9954249921296956e+00  6.9953796887650732e+00  6.7458293395698128e+00  6.7457898884039489e+00  6.4963031691924131e+00  6.4962695173616698e+00  9.7488141477996528e+00  9.7487632795483758e+00  1.0000000000000000e+01  1.0000000000000000e+01  9.4977572196741811e+00  9.4976862676310425e+00  9.2468596277105171e+00  9.2467807549829217e+00  8.9961299120839175e+00  8.9960490036416747e+00  8.7455664768784711e+00  8.7454867793090330e+00  8.4951624770427614e+00  8.4950859122528879e+00  8.2449082419434099e+00  8.2448359814050427e+00  7.9947926197978267e+00  7.9947253766835740e+00  7.7448037710263646e+00  7.7447419659392081e+00  7.4949296488034243e+00  7.4948735112795317e+00  7.2451582892547819e+00  7.2451079234241167e+00  6.9954779804117528e+00  6.9954334091994106e+00  6.7458773516033901e+00  6.7458385473672431e+00  6.4963454096287627e+00  6.4963123158457803e+00  6.2468440857449945e+00  9.7488311546905280e+00  9.7487808579071160e+00  1.0000000000000000e+01  1.0000000000000002e+01  9.4977898565638039e+00  9.4977198205629776e+00  9.2469059080450471e+00  9.2468281679663118e+00  8.9961875172512205e+00  8.9961078725344787e+00  8.7456329441047842e+00  8.7455545788254767e+00  8.4952353332993553e+00  8.4951601217500805e+00  8.2449850990317017e+00  8.2449141758554116e+00  7.9948712392129382e+00  7.9948052890653809e+00  7.7448821048508343e+00  7.7448215264216982e+00  7.4950058618420474e+00  7.4949508680554562e+00  7.2452307669489713e+00  7.2451814495705982e+00  6.9955453264729499e+00  6.9955016994333210e+00  6.7459383787098730e+00  6.7459004080028730e+00  6.4963991259458274e+00  6.4963667506942615e+00  6.2468902801543669e+00  9.7488518408122626e+00  9.7488022601003888e+00  1.0000000000000002e+01  1.0000000000000000e+01  9.4978295150719170e+00  9.4977606243767987e+00  9.2469620766700800e+00  9.2468857494690972e+00  8.9962573357452573e+00  8.9961792637042599e+00  8.7457133898882500e+00  8.7456366786731419e+00  8.4953233874087779e+00  8.4952498519765474e+00  8.2450778619332947e+00  8.2450085914095048e+00  7.9949660078900191e+00  7.9949016520339047e+00  7.7449764195979398e+00  7.7449173505920808e+00  7.4950975297767668e+00  7.4950439407185216e+00  7.2453178682525854e+00  7.2452698363805483e+00  6.9956262084638112e+00  6.9955837373376699e+00  6.7460116419776890e+00  6.7459746904230746e+00  6.4964636059500807e+00  6.4964321083317680e+00  6.2469457600624789e+00  6.2469718794436604e+00  9.7488761300399105e+00  9.7488274212550170e+00  1.0000000000000000e+01  1.0000000000000000e+01  9.4978760195669558e+00  9.4978085194701247e+00  9.2470278343280885e+00  9.2469532175124787e+00  8.9963389273590462e+00  8.9962627533673452e+00  8.7458072262064448e+00  8.7457325051693680e+00  8.4954259080889649e+00  8.4953543832878076e+00  8.2451856712060820e+00  8.2451183773754444e+00  7.9950759618915725e+00  7.9950135076273190e+00  7.7450856765975722e+00  7.7450284032836976e+00  7.4952035725611310e+00  7.4951516506609233e+00  7.2454185064362706e+00  7.2453719969482817e+00  6.9957195671400685e+00  6.9956784623252739e+00  6.7460961418623508e+00  6.7460603929925069e+00  6.4965379390388502e+00  6.4965074756891683e+00  6.2470349832290264e+00  6.2470097268801297e+00  9.7489039160087252e+00  9.7488562491910802e+00  1.0000000000000000e+01  1.0000000000000000e+01  9.4979291278214788e+00  9.4978632834936132e+00  9.2471027737115836e+00  9.2470301857811830e+00  8.9964317004027947e+00  8.9963577692789993e+00  8.7459136718644217e+00  8.7458412935432506e+00  8.4955419342972451e+00  8.4954727673843760e+00  8.2453074086420770e+00  8.2452424245085982e+00  7.9951998585428994e+00  7.9951396186219075e+00  7.7452085480120312e+00  7.7451533590808470e+00  7.4953226198617200e+00  7.4952726275293005e+00  7.2455313119471958e+00  7.2454865598711340e+00  6.9958240754699847e+00  6.9957845442707214e+00  6.7461906325165888e+00  6.7461562660564427e+00  6.4966209951189979e+00  6.4965917186112883e+00  6.2471054595427544e+00  6.2470811922103078e+00  5.9976152483998550e+00  9.7489350524821248e+00  9.7488886153532448e+00  1.0000000000000000e+01  1.0000000000000000e+01  9.4979885105233777e+00  9.4979246113888287e+00  9.2471863479107501e+00  9.2471161322888165e+00  8.9965348702903558e+00  8.9964635491397313e+00  8.7460317035971133e+00  8.7459620384822774e+00  8.4956702218655735e+00  8.4956037730975176e+00  8.2454416425266395e+00  8.2453793092306658e+00  7.9953361230456226e+00  7.9952784140142388e+00  7.7453433669245584e+00  7.7452905512668098e+00  7.4954529660537901e+00  7.4954051631311085e+00  7.2456545930984362e+00  7.2456118289404916e+00  6.9959381052711782e+00  6.9959003492621950e+00  6.7462935942345768e+00  6.7462607836231028e+00  6.4967114024629211e+00  6.4966834590753697e+00  6.2471821182599054e+00  6.2471589600689654e+00  5.9976781061170223e+00  5.9976965569124188e+00  9.7489693407549485e+00  9.7489243429797252e+00  1.0000000000000000e+01  9.9999999999999982e+00  9.4980537244357635e+00  9.4979920891917953e+00  9.2472778293793301e+00  9.2472103584889194e+00  8.9966474064573863e+00  8.9965790870695930e+00  8.7461599946234170e+00  8.7460934317261820e+00  8.4958091779956906e+00  8.4957458195555198e+00  8.2455865621665652e+00  8.2455272266226025e+00  7.9954827863709701e+00  7.9954279253148597e+00  7.7454880709358482e+00  7.7454379138636327e+00  7.4955925208704803e+00  7.4955471606408226e+00  7.2457862942795410e+00  7.2457457400633594e+00  6.9960596928580383e+00  6.9960239041312882e+00  6.7464032059904238e+00  6.7463721149580564e+00  6.4968075263566654e+00  6.4967810530616923e+00  6.2472635474836293e+00  6.2472416101519732e+00  5.9977623494942645e+00  5.9977448716920279e+00  9.7490065130201256e+00  9.7489631915099473e+00  9.9999999999999982e+00  1.0000000000000000e+01  9.4981241769385534e+00  9.4980651593179868e+00  9.2473762563404946e+00  9.2473119356122382e+00  8.9967679644371650e+00  8.9967030647436381e+00  8.7462968380964856e+00  8.7462337838813173e+00  8.4959567821522803e+00  8.4958968950054778e+00  8.2457399014843702e+00  8.2456839117620575e+00  7.9956374153971579e+00  7.9955857144394420e+00  7.7456401411520011e+00  7.7455929185156744e+00  7.4957387582006199e+00  7.4956960815099043e+00  7.2459239544972176e+00  7.2458858181635639e+00  6.9961865065720961e+00  6.9961528625959870e+00  6.7465173208156788e+00  6.7464880988137450e+00  6.4969074510238221e+00  6.4968825715483058e+00  6.2473481007217107e+00  6.2473274842785509e+00  5.9978306152716225e+00  5.9978141885027902e+00  5.7483341667965151e+00  9.7490462099889985e+00  9.7490048356190968e+00  9.9999999999999982e+00  1.0000000000000000e+01  9.4981990784193968e+00  9.4981430737144290e+00  9.2474803621004664e+00  9.2474196334056966e+00  8.9968947988233765e+00  8.9968337624974328e+00  8.7464400525066353e+00  8.7463809270646902e+00  8.4961104922790636e+00  8.4960544598139460e+00  8.2458988524891108e+00  8.2458465498949209e+00  7.9957970376532925e+0