<?xml version="1.0"?>
<VTKFile type="UnstructuredGrid"  version="0.1"  >
<UnstructuredGrid>
<Piece  NumberOfPoints="17996" NumberOfCells="95562">
<Points>
<DataArray  type="Float64"  NumberOfComponents="3"  format="ascii">0.15 0 0  0.175 0 0  0.175 0.025 0  0.175 0.025 0.025  0.175 0 0.025  0.2 0 0  0.2 0.025 0  0.2 0.025 0.025  0.2 0 0.025  0.225 0 0  0.225 0.025 0  0.225 0.025 0.025  0.225 0 0.025  0.25 0 0  0.25 0.025 0  0.25 0.025 0.025  0.25 0 0.025  0.275 0 0  0.275 0.025 0  0.275 0.025 0.025  0.275 0 0.025  0.3 0 0  0.3 0.025 0  0.3 0.025 0.025  0.3 0 0.025  0.325 0 0  0.325 0.025 0  0.325 0.025 0.025  0.325 0 0.025  0.35 0 0  0.35 0.025 0  0.35 0.025 0.025  0.35 0 0.025  0.375 0 0  0.375 0.025 0  0.375 0.025 0.025  0.375 0 0.025  0.4 0 0  0.4 0.025 0  0.4 0.025 0.025  0.4 0 0.025  0.425 0 0  0.425 0.025 0  0.425 0.025 0.025  0.425 0 0.025  0.45 0 0  0.45 0.025 0  0.45 0.025 0.025  0.45 0 0.025  0.475 0 0  0.475 0.025 0  0.475 0.025 0.025  0.475 0 0.025  0.5 0 0  0.5 0.025 0  0.5 0.025 0.025  0.5 0 0.025  0.525 0 0  0.525 0.025 0  0.525 0.025 0.025  0.525 0 0.025  0.55 0 0.025  0.55 0.025 0.025  0.55 0.025 0  0.2 0.05 0  0.2 0.05 0.025  0.175 0.05 0  0.175 0.05 0.025  0.225 0.05 0  0.225 0.05 0.025  0.25 0.05 0  0.25 0.05 0.025  0.275 0.05 0  0.275 0.05 0.025  0.3 0.05 0  0.3 0.05 0.025  0.325 0.05 0  0.325 0.05 0.025  0.35 0.05 0  0.35 0.05 0.025  0.375 0.05 0  0.375 0.05 0.025  0.4 0.05 0  0.4 0.05 0.025  0.425 0.05 0  0.425 0.05 0.025  0.45 0.05 0  0.45 0.05 0.025  0.475 0.05 0  0.475 0.05 0.025  0.5 0.05 0  0.5 0.05 0.025  0.525 0.05 0  0.525 0.05 0.025  0.55 0.05 0  0.55 0.05 0.025  0.575 0.025 0  0.575 0.05 0  0.575 0.05 0.025  0.575 0.025 0.025  0.6 0.05 0  0.6 0.05 0.025  0.2 0.075 0  0.2 0.075 0.025  0.175 0.075 0  0.225 0.075 0  0.225 0.075 0.025  0.25 0.075 0  0.25 0.075 0.025  0.275 0.075 0  0.275 0.075 0.025  0.3 0.075 0  0.3 0.075 0.025  0.325 0.075 0  0.325 0.075 0.025  0.35 0.075 0  0.35 0.075 0.025  0.375 0.075 0  0.375 0.075 0.025  0.4 0.075 0  0.4 0.075 0.025  0.425 0.075 0  0.425 0.075 0.025  0.45 0.075 0  0.45 0.075 0.025  0.475 0.075 0  0.475 0.075 0.025  0.5 0.075 0  0.5 0.075 0.025  0.525 0.075 0  0.525 0.075 0.025  0.55 0.075 0  0.55 0.075 0.025  0.575 0.075 0  0.575 0.075 0.025  0.6 0.075 0  0.6 0.075 0.025  0.625 0.05 0  0.625 0.075 0  0.625 0.075 0.025  0.625 0.05 0.025  0.65 0.075 0  0.65 0.075 0.025  0.2 0.1 0  0.2 0.1 0.025  0.225 0.1 0  0.225 0.1 0.025  0.25 0.1 0  0.25 0.1 0.025  0.275 0.1 0  0.275 0.1 0.025  0.3 0.1 0  0.3 0.1 0.025  0.325 0.1 0  0.325 0.1 0.025  0.35 0.1 0  0.35 0.1 0.025  0.375 0.1 0  0.375 0.1 0.025  0.4 0.1 0  0.4 0.1 0.025  0.425 0.1 0  0.425 0.1 0.025  0.45 0.1 0  0.45 0.1 0.025  0.475 0.1 0  0.475 0.1 0.025  0.5 0.1 0  0.5 0.1 0.025  0.525 0.1 0  0.525 0.1 0.025  0.55 0.1 0  0.55 0.1 0.025  0.575 0.1 0  0.575 0.1 0.025  0.6 0.1 0  0.6 0.1 0.025  0.625 0.1 0  0.625 0.1 0.025  0.65 0.1 0  0.65 0.1 0.025  0.675 0.075 0  0.675 0.1 0  0.675 0.1 0.025  0.7 0.1 0  0.7 0.1 0.025  0.225 0.125 0  0.225 0.125 0.025  0.2 0.125 0  0.2 0.125 0.025  0.25 0.125 0  0.25 0.125 0.025  0.275 0.125 0  0.275 0.125 0.025  0.3 0.125 0  0.3 0.125 0.025  0.325 0.125 0  0.325 0.125 0.025  0.35 0.125 0  0.35 0.125 0.025  0.375 0.125 0  0.375 0.125 0.025  0.4 0.125 0  0.4 0.125 0.025  0.425 0.125 0  0.425 0.125 0.025  0.45 0.125 0  0.45 0.125 0.025  0.475 0.125 0  0.475 0.125 0.025  0.5 0.125 0  0.5 0.125 0.025  0.525 0.125 0  0.525 0.125 0.025  0.55 0.125 0  0.55 0.125 0.025  0.575 0.125 0  0.575 0.125 0.025  0.6 0.125 0  0.6 0.125 0.025  0.625 0.125 0  0.625 0.125 0.025  0.65 0.125 0  0.65 0.125 0.025  0.675 0.125 0  0.675 0.125 0.025  0.7 0.125 0  0.7 0.125 0.025  0.725 0.1 0  0.725 0.125 0  0.725 0.125 0.025  0.75 0.125 0  0.75 0.125 0.025  0.225 0.15 0  0.225 0.15 0.025  0.25 0.15 0  0.25 0.15 0.025  0.275 0.15 0  0.275 0.15 0.025  0.3 0.15 0  0.3 0.15 0.025  0.325 0.15 0  0.325 0.15 0.025  0.35 0.15 0  0.35 0.15 0.025  0.375 0.15 0  0.375 0.15 0.025  0.4 0.15 0  0.4 0.15 0.025  0.425 0.15 0  0.425 0.15 0.025  0.45 0.15 0  0.45 0.15 0.025  0.475 0.15 0  0.475 0.15 0.025  0.5 0.15 0  0.5 0.15 0.025  0.525 0.15 0  0.525 0.15 0.025  0.55 0.15 0  0.55 0.15 0.025  0.575 0.15 0  0.575 0.15 0.025  0.6 0.15 0  0.6 0.15 0.025  0.625 0.15 0  0.625 0.15 0.025  0.65 0.15 0  0.65 0.15 0.025  0.675 0.15 0  0.675 0.15 0.025  0.7 0.15 0  0.7 0.15 0.025  0.725 0.15 0  0.725 0.15 0.025  0.75 0.15 0  0.75 0.15 0.025  0.775 0.125 0  0.775 0.15 0  0.775 0.15 0.025  0.775 0.125 0.025  0.8 0.125 0  0.8 0.15 0  0.8 0.15 0.025  0.825 0.15 0  0.825 0.15 0.025  0.25 0.175 0  0.25 0.175 0.025  0.225 0.175 0  0.275 0.175 0  0.275 0.175 0.025  0.3 0.175 0  0.3 0.175 0.025  0.325 0.175 0  0.325 0.175 0.025  0.35 0.175 0  0.35 0.175 0.025  0.375 0.175 0  0.375 0.175 0.025  0.4 0.175 0  0.4 0.175 0.025  0.425 0.175 0  0.425 0.175 0.025  0.45 0.175 0  0.45 0.175 0.025  0.475 0.175 0  0.475 0.175 0.025  0.5 0.175 0  0.5 0.175 0.025  0.525 0.175 0  0.525 0.175 0.025  0.55 0.175 0  0.55 0.175 0.025  0.575 0.175 0  0.575 0.175 0.025  0.6 0.175 0  0.6 0.175 0.025  0.625 0.175 0  0.625 0.175 0.025  0.65 0.175 0  0.65 0.175 0.025  0.675 0.175 0  0.675 0.175 0.025  0.7 0.175 0  0.7 0.175 0.025  0.725 0.175 0  0.725 0.175 0.025  0.75 0.175 0  0.75 0.175 0.025  0.775 0.175 0  0.775 0.175 0.025  0.8 0.175 0  0.8 0.175 0.025  0.825 0.175 0  0.825 0.175 0.025  0.85 0.15 0  0.85 0.175 0  0.85 0.175 0.025  0.875 0.175 0  0.875 0.175 0.025  0.25 0.2 0  0.25 0.2 0.025  0.275 0.2 0  0.275 0.2 0.025  0.3 0.2 0  0.3 0.2 0.025  0.325 0.2 0  0.325 0.2 0.025  0.35 0.2 0  0.35 0.2 0.025  0.375 0.2 0  0.375 0.2 0.025  0.4 0.2 0  0.4 0.2 0.025  0.425 0.2 0  0.425 0.2 0.025  0.45 0.2 0  0.45 0.2 0.025  0.475 0.2 0  0.475 0.2 0.025  0.5 0.2 0  0.5 0.2 0.025  0.525 0.2 0  0.525 0.2 0.025  0.55 0.2 0  0.55 0.2 0.025  0.575 0.2 0  0.575 0.2 0.025  0.6 0.2 0  0.6 0.2 0.025  0.625 0.2 0  0.625 0.2 0.025  0.65 0.2 0  0.65 0.2 0.025  0.675 0.2 0  0.675 0.2 0.025  0.7 0.2 0  0.7 0.2 0.025  0.725 0.2 0  0.725 0.2 0.025  0.75 0.2 0  0.75 0.2 0.025  0.775 0.2 0  0.775 0.2 0.025  0.8 0.2 0  0.8 0.2 0.025  0.825 0.2 0  0.825 0.2 0.025  0.85 0.2 0  0.85 0.2 0.025  0.875 0.2 0  0.875 0.2 0.025  0.9 0.175 0  0.9 0.2 0  0.9 0.2 0.025  0.925 0.175 0  0.925 0.2 0  0.925 0.2 0.025  0.95 0.2 0  0.95 0.2 0.025  0.275 0.225 0  0.275 0.225 0.025  0.25 0.225 0  0.25 0.225 0.025  0.3 0.225 0  0.3 0.225 0.025  0.325 0.225 0  0.325 0.225 0.025  0.35 0.225 0  0.35 0.225 0.025  0.375 0.225 0  0.375 0.225 0.025  0.4 0.225 0  0.4 0.225 0.025  0.425 0.225 0  0.425 0.225 0.025  0.45 0.225 0  0.45 0.225 0.025  0.475 0.225 0  0.475 0.225 0.025  0.5 0.225 0  0.5 0.225 0.025  0.525 0.225 0  0.525 0.225 0.025  0.55 0.225 0  0.55 0.225 0.025  0.575 0.225 0  0.575 0.225 0.025  0.6 0.225 0  0.6 0.225 0.025  0.625 0.225 0  0.625 0.225 0.025  0.65 0.225 0  0.65 0.225 0.025  0.675 0.225 0  0.675 0.225 0.025  0.7 0.225 0  0.7 0.225 0.025  0.725 0.225 0  0.725 0.225 0.025  0.75 0.225 0  0.75 0.225 0.025  0.775 0.225 0  0.775 0.225 0.025  0.8 0.225 0  0.8 0.225 0.025  0.825 0.225 0  0.825 0.225 0.025  0.85 0.225 0  0.85 0.225 0.025  0.875 0.225 0  0.875 0.225 0.025  0.9 0.225 0  0.9 0.225 0.025  0.925 0.225 0  0.925 0.225 0.025  0.95 0.225 0  0.95 0.225 0.025  0.975 0.2 0  0.975 0.225 0  0.975 0.225 0.025  1 0.2 0  1 0.225 0  1 0.225 0.025  0.275 0.25 0  0.275 0.25 0.025  0.25 0.25 0  0.3 0.25 0  0.3 0.25 0.025  0.325 0.25 0  0.325 0.25 0.025  0.35 0.25 0  0.35 0.25 0.025  0.375 0.25 0  0.375 0.25 0.025  0.4 0.25 0  0.4 0.25 0.025  0.425 0.25 0  0.425 0.25 0.025  0.45 0.25 0  0.45 0.25 0.025  0.475 0.25 0  0.475 0.25 0.025  0.5 0.25 0  0.5 0.25 0.025  0.525 0.25 0  0.525 0.25 0.025  0.55 0.25 0  0.55 0.25 0.025  0.575 0.25 0  0.575 0.25 0.025  0.6 0.25 0  0.6 0.25 0.025  0.625 0.25 0  0.625 0.25 0.025  0.65 0.25 0  0.65 0.25 0.025  0.675 0.25 0  0.675 0.25 0.025  0.7 0.25 0  0.7 0.25 0.025  0.725 0.25 0  0.725 0.25 0.025  0.75 0.25 0  0.75 0.25 0.025  0.775 0.25 0  0.775 0.25 0.025  0.8 0.25 0  0.8 0.25 0.025  0.825 0.25 0  0.825 0.25 0.025  0.85 0.25 0  0.85 0.25 0.025  0.875 0.25 0  0.875 0.25 0.025  0.9 0.25 0  0.9 0.25 0.025  0.925 0.25 0  0.925 0.25 0.025  0.95 0.25 0  0.95 0.25 0.025  0.975 0.25 0  0.975 0.25 0.025  1 0.25 0  1 0.25 0.025  0.275 0.275 0  0.275 0.275 0.025  0.3 0.275 0  0.3 0.275 0.025  0.325 0.275 0  0.325 0.275 0.025  0.35 0.275 0  0.35 0.275 0.025  0.375 0.275 0  0.375 0.275 0.025  0.4 0.275 0  0.4 0.275 0.025  0.425 0.275 0  0.425 0.275 0.025  0.45 0.275 0  0.45 0.275 0.025  0.475 0.275 0  0.475 0.275 0.025  0.5 0.275 0  0.5 0.275 0.025  0.525 0.275 0  0.525 0.275 0.025  0.55 0.275 0  0.55 0.275 0.025  0.575 0.275 0  0.575 0.275 0.025  0.6 0.275 0  0.6 0.275 0.025  0.625 0.275 0  0.625 0.275 0.025  0.65 0.275 0  0.65 0.275 0.025  0.675 0.275 0  0.675 0.275 0.025  0.7 0.275 0  0.7 0.275 0.025  0.725 0.275 0  0.725 0.275 0.025  0.75 0.275 0  0.75 0.275 0.025  0.775 0.275 0  0.775 0.275 0.025  0.8 0.275 0  0.8 0.275 0.025  0.825 0.275 0  0.825 0.275 0.025  0.85 0.275 0  0.85 0.275 0.025  0.875 0.275 0  0.875 0.275 0.025  0.9 0.275 0  0.9 0.275 0.025  0.925 0.275 0  0.925 0.275 0.025  0.95 0.275 0  0.95 0.275 0.025  0.975 0.275 0  0.975 0.275 0.025  1 0.275 0  1 0.275 0.025  0.3 0.3 0  0.3 0.3 0.025  0.275 0.3 0  0.275 0.3 0.025  0.325 0.3 0  0.325 0.3 0.025  0.35 0.3 0  0.35 0.3 0.025  0.375 0.3 0  0.375 0.3 0.025  0.4 0.3 0  0.4 0.3 0.025  0.425 0.3 0  0.425 0.3 0.025  0.45 0.3 0  0.45 0.3 0.025  0.475 0.3 0  0.475 0.3 0.025  0.5 0.3 0  0.5 0.3 0.025  0.525 0.3 0  0.525 0.3 0.025  0.55 0.3 0  0.55 0.3 0.025  0.575 0.3 0  0.575 0.3 0.025  0.6 0.3 0  0.6 0.3 0.025  0.625 0.3 0  0.625 0.3 0.025  0.65 0.3 0  0.65 0.3 0.025  0.675 0.3 0  0.675 0.3 0.025  0.7 0.3 0  0.7 0.3 0.025  0.725 0.3 0  0.725 0.3 0.025  0.75 0.3 0  0.75 0.3 0.025  0.775 0.3 0  0.775 0.3 0.025  0.8 0.3 0  0.8 0.3 0.025  0.825 0.3 0  0.825 0.3 0.025  0.85 0.3 0  0.85 0.3 0.025  0.875 0.3 0  0.875 0.3 0.025  0.9 0.3 0  0.9 0.3 0.025  0.925 0.3 0  0.925 0.3 0.025  0.95 0.3 0  0.95 0.3 0.02
[...]
<PointData  Scalars="f_8"> 
<DataArray  type="Float64"  Name="f_8"  format="ascii">8.4970364079090803e+00  8.2468357737123927e+00  8.2468072453469414e+00  8.2467825452449013e+00  8.2468072453469414e+00  7.9967216130058487e+00  7.9966943033810916e+00  7.9966708013134946e+00  7.9966943033810907e+00  7.7466901116545026e+00  7.7466643791322483e+00  7.7466423360828527e+00  7.7466643791322474e+00  7.4967364134144825e+00  7.4967125246935700e+00  7.4966921342665831e+00  7.4967125246935700e+00  7.2468548853671848e+00  7.2468330389498528e+00  7.2468144444204956e+00  7.2468330389498465e+00  6.9970393162185820e+00  6.9970196592727181e+00  6.9970029659732624e+00  6.9970196592727127e+00  6.7472830659715877e+00  6.7472657068151776e+00  6.7472509913965322e+00  6.7472657068151749e+00  6.4975791793756255e+00  6.4975641969122258e+00  6.4975515144041447e+00  6.4975641969122240e+00  6.2479204718703123e+00  6.2479079228073386e+00  6.2478973120590320e+00  6.2479079228073404e+00  5.9982995944090600e+00  5.9982895187989502e+00  5.9982810066807621e+00  5.9982895187989529e+00  5.7487090820226880e+00  5.7487015074869676e+00  5.7486951121088943e+00  5.7487015074869703e+00  5.4991413899592132e+00  5.4991363348392612e+00  5.4991320679606508e+00  5.4991363348392612e+00  5.2495889205388053e+00  5.2495863961383904e+00  5.2495842648876119e+00  5.2495863961383913e+00  5.0000440433886348e+00  5.0000440554173036e+00  5.0000440634001890e+00  5.0000440554173071e+00  4.7504991114076880e+00  4.7505016606915644e+00  4.7505038085368216e+00  4.7505016606915680e+00  4.5009515571103718e+00  4.5009558424749834e+00  4.5009515571103709e+00  7.9966324358264584e+00  7.9966074400056595e+00  8.2467429262083307e+00  8.2467163555220289e+00  7.7466058715789243e+00  7.7465826375388449e+00  7.4966580555254225e+00  7.4966367178175268e+00  7.2467831151855631e+00  7.2467637699184762e+00  6.9969746587817943e+00  6.9969573735454658e+00  6.7472259095321263e+00  6.7472107307760822e+00  6.4975298083701061e+00  6.4975167670340426e+00  6.2478790920914538e+00  6.2478682079628944e+00  5.9982663522915569e+00  5.9982576373896288e+00  5.7486840793187168e+00  5.7486775405004016e+00  5.4991246946674766e+00  5.4991203355881817e+00  5.2495805746717021e+00  5.2495783971894818e+00  5.0000440679632616e+00  5.0000440730455198e+00  4.7505075088956552e+00  4.7505096970641825e+00  4.5009632289662216e+00  4.5009676002974590e+00  4.2513861000586788e+00  4.2514035681896534e+00  4.2514101218696299e+00  4.2513925170934481e+00  4.0018208883715189e+00  4.0018296217876133e+00  7.9965390303052768e+00  7.9965108179649960e+00  8.2466464673395610e+00  7.7465170784163346e+00  7.7464910638152960e+00  7.4965750513165190e+00  7.4965513192891455e+00  7.2467067878902203e+00  7.2466853917512255e+00  6.9969056766927364e+00  6.9968866477836205e+00  6.7471647729388504e+00  6.7471481273561196e+00  6.4974768888109269e+00  6.4974626323647211e+00  6.2478346624307592e+00  6.2478227944007001e+00  5.9982306098003404e+00  5.9982211258153271e+00  5.7486571632443919e+00  5.7486500574849604e+00  5.4991066993138329e+00  5.4991019661624758e+00  5.2495715586865899e+00  5.2495691939068223e+00  5.0000440602967506e+00  5.0000440617922939e+00  4.7505165117111190e+00  4.7505188798955515e+00  4.5009812176378201e+00  4.5009859554284120e+00  4.2514304883849690e+00  4.2514376008194148e+00  4.0018566500830914e+00  4.0018661435427587e+00  3.7522075903030339e+00  3.7522520585427732e+00  3.7522639395484729e+00  3.7522184976351487e+00  3.5026091187419048e+00  3.5026233922652010e+00  7.9964198560170177e+00  7.9963877676724557e+00  7.7464031371758626e+00  7.7463737121097997e+00  7.4964680465346607e+00  7.4964413334746673e+00  7.2466080227796175e+00  7.2465840403986963e+00  6.9968161445477879e+00  6.9967948926608203e+00  6.7470852265858916e+00  6.7470666935099430e+00  6.4974078943458409e+00  6.4973920620075445e+00  6.2477766409169311e+00  6.2477634885391931e+00  5.9981838695442971e+00  5.9981733763720140e+00  5.7486219245102168e+00  5.7486140718401586e+00  5.4990831127939392e+00  5.4990778854672806e+00  5.2495597186488041e+00  5.2495571061029516e+00  5.0000440130272112e+00  5.0000440099656061e+00  4.7505282596347103e+00  4.7505308663479004e+00  4.5010047192970726e+00  4.5010099416494089e+00  4.2514656542747389e+00  4.2514735033547257e+00  4.0019033341543153e+00  4.0019138255698863e+00  3.7523100449867433e+00  3.7523231977665898e+00  3.5026781034266468e+00  3.5026939384606872e+00  3.2529203121329848e+00  3.2529998777595681e+00  3.2530184156690520e+00  3.0032678178862859e+00  3.0032890761441204e+00  7.7462698753468242e+00  7.7462367957487901e+00  7.9962812801949594e+00  7.9962450883561536e+00  7.4963423015005199e+00  7.4963123623379806e+00  7.2464915067251470e+00  7.2464647026250253e+00  6.9967101811132340e+00  6.9966864875038599e+00  6.7469908323085210e+00  6.7469702144912347e+00  6.4973258433619465e+00  6.4973082625192271e+00  6.2477075161405713e+00  6.2476929334744860e+00  5.9981281028379829e+00  5.9981164825018913e+00  5.7485798277564610e+00  5.7485711389603615e+00  5.4990549012840280e+00  5.4990491197978555e+00  5.2495455278117937e+00  5.2495426370010092e+00  5.0000439092047531e+00  5.0000439006780057e+00  4.7505422453433566e+00  4.7505451192566772e+00  4.5010327331892164e+00  4.5010384982256664e+00  4.2515075657946992e+00  4.2515162388168592e+00  4.0019589326712115e+00  4.0019705380219763e+00  3.7523790229544476e+00  3.7523935913545343e+00  3.5027600328557309e+00  3.5027775998080428e+00  3.2530941789668377e+00  3.2531147825182685e+00  3.0033737190920933e+00  3.0033973967046839e+00  2.7534744965700204e+00  2.7535909824195857e+00  2.7536177665322210e+00  2.5037384110279484e+00  2.5037683225821956e+00  7.7461230593072390e+00  7.7460862863882118e+00  7.4962031194594791e+00  7.4961698919820323e+00  7.2463620376119993e+00  7.2463323370811503e+00  6.9965920559158450e+00  6.9965658413791418e+00  6.7468853204941182e+00  6.7468625400484301e+00  6.4972339237884817e+00  6.4972145220568480e+00  6.2476299345133288e+00  6.2476138576641036e+00  5.9980654176255497e+00  5.9980526168265778e+00  5.7485324461831215e+00  5.7485228800118104e+00  5.4990231066879991e+00  5.4990167428076004e+00  5.2495294993484114e+00  5.2495263156374063e+00  5.0000437345937998e+00  5.0000437198396668e+00  4.7505579271083054e+00  4.7505610813277368e+00  4.5010641886053380e+00  4.5010705230175398e+00  4.2515546205426205e+00  4.2515641571926865e+00  4.0020213079722327e+00  4.0020340789714552e+00  3.7524563157328399e+00  3.7524723620458786e+00  3.5028516882217757e+00  3.5028710578784636e+00  3.2531994540350269e+00  3.2532221995640191e+00  3.0034916368403595e+00  3.0035178115902736e+00  2.7537202739730304e+00  2.7537499267628252e+00  2.5038774444650445e+00  2.5039106116115111e+00  2.2538086150011609e+00  2.2539553086632926e+00  2.2539920017175721e+00  2.2538416536304058e+00  2.0037944439264694e+00  2.0039461625627903e+00  2.0039863487390979e+00  1.7538425122077788e+00  1.7538860818401243e+00  7.4960555192967293e+00  7.4960190568366265e+00  7.7459680515693403e+00  7.2462242223205102e+00  7.2461916539227555e+00  6.9964659178810509e+00  6.9964371938959706e+00  6.7467723520699279e+00  6.7467474093116513e+00  6.4971352895429160e+00  6.4971140605798317e+00  6.2475465314017189e+00  6.2475289507524643e+00  5.9979979240899253e+00  5.9979839324387942e+00  5.7484813612488281e+00  5.7484709083449372e+00  5.4989887800295492e+00  5.4989818266728934e+00  5.2495121531245283e+00  5.2495086724853062e+00  5.0000434776536151e+00  5.0000434560732767e+00  4.7505747619672638e+00  4.7505781993248766e+00  4.5010980113877954e+00  4.5011049210681353e+00  4.2516052138885367e+00  4.2516156223487140e+00  4.0020883267061231e+00  4.0021022725974076e+00  3.7525392648920555e+00  3.7525567976449876e+00  3.5029498928391898e+00  3.5029710705525328e+00  3.2533120198758616e+00  3.2533369062475028e+00  3.0036174011258794e+00  3.0036460609998481e+00  2.7538577450338275e+00  2.7538902378649546e+00  2.5040247293545281e+00  2.5040610994241730e+00  2.2541100282247393e+00  2.2541502896121361e+00  2.0041053546520891e+00  2.0041494674457954e+00  1.7540025264035148e+00  1.7540503577312223e+00  1.5036371787555045e+00  1.5037935711132664e+00  1.5038448287085215e+00  1.2534709035135039e+00  1.2535250168638836e+00  7.4959040708299280e+00  7.4958645042946497e+00  7.2460823139897546e+00  7.2460469774631653e+00  6.9963356419525997e+00  6.9963044837432129e+00  6.7466553792498001e+00  6.7466283303021717e+00  6.4970329383852086e+00  6.4970099235243302e+00  6.2474598278841560e+00  6.2474407733485409e+00  5.9979276513476378e+00  5.9979124899161302e+00  5.7484280998671480e+00  5.7484167743747339e+00  5.4989529394334200e+00  5.4989454051680093e+00  5.2494939945898516e+00  5.2494902208757885e+00  5.0000431293751753e+00  5.0000431005303465e+00  4.7505922264875160e+00  4.7505959422604613e+00  4.5011331655414732e+00  4.5011406410756338e+00  4.2516578012617394e+00  4.2516690665835819e+00  4.0021579424525093e+00  4.0021730414295407e+00  3.7526253326006920e+00  3.7526443212547700e+00  3.5030516330205601e+00  3.5030745769991078e+00  3.2534284095456263e+00  3.2534553804305979e+00  3.0037471239602009e+00  3.0037781939022090e+00  2.7539991317163541e+00  2.7540343655683834e+00  2.5041756881588961e+00  2.5042151317585684e+00  2.2542679667917227e+00  2.2543116291307008e+00  2.0042670956822715e+00  2.0043149210664928e+00  1.7541642231602037e+00  1.7542160463966470e+00  1.5039506340699627e+00  1.5040061056220395e+00  1.2536179583749076e+00  1.2536764133827367e+00  1.0030276457906158e+00  1.0031585569411674e+00  1.0032187711747140e+00  7.5245825061248139e-01  7.5256626438652052e-01  7.5262595769029539e-01  5.0183789852365213e-01  5.0189259135057651e-01  7.2459401301693385e+00  7.2459021750233115e+00  7.4957528225830554e+00  7.4957103353532109e+00  6.9962047449499662e+00  6.9961712734620933e+00  6.7465375644509713e+00  6.7465085062586585e+00  6.4969296376947669e+00  6.4969049136790780e+00  6.2473721660250865e+00  6.2473516972251231e+00  5.9978564940101871e+00  5.9978402077291095e+00  5.7483740934389882e+00  5.7483619274469611e+00  5.4989165423793454e+00  5.4989084477835419e+00  5.2494755006879759e+00  5.2494714438296217e+00  5.0000426830380098e+00  5.0000426466394439e+00  4.7506098303496858e+00  4.7506138140399630e+00  4.5011686804127455e+00  4.5011767006893875e+00  4.2517109384452185e+00  4.2517230280689517e+00  4.0022282483293479e+00  4.0022444550876752e+00  3.7527121653011148e+00  3.7527325500044415e+00  3.5031541309569487e+00  3.5031787644345234e+00  3.2535454516088556e+00  3.2535744103314967e+00  3.0038772813249968e+00  3.0039106410660801e+00  2.7541406115451617e+00  2.7541784381476213e+00  2.5043262701622764e+00  2.5043686059129997e+00  2.2544249347903205e+00  2.2544717779384253e+00  2.0044271683078576e+00  2.0044784415563770e+00  1.7543234910351717e+00  1.7543789916699892e+00  1.5041045157413955e+00  1.5041638338242249e+00  1.2537611945581106e+00  1.2538235723114570e+00  1.0032852728368538e+00  1.0033493469463923e+00  7.5267014349674910e-01  7.5273342793395170e-01  5.0191252964297539e-01  5.0197023646503924e-01  2.5097658127513600e-01  2.5101606920889608e-01  2.5105793460066311e-01  0.0000000000000000e+00  0.0000000000000000e+00  0.0000000000000000e+00  7.2458010228863134e+00  7.2457606330285795e+00  7.4956052862906555e+00  6.9960763473171550e+00  6.9960407160861697e+00  6.7464217386563581e+00  6.7463907979561277e+00  6.4968278832680113e+00  6.4968015531594316e+00  6.2472856709829090e+00  6.2472638699367700e+00  5.9977861797080232e+00  5.9977688316907622e+00  5.7483206522870063e+00  5.7483076916714912e+00  5.4988804680567593e+00  5.4988718429924344e+00  5.2494571107494821e+00  5.2494527853980983e+00  5.0000421339275052e+00  5.0000420898191527e+00  4.7506271248718281e+00  4.7506313615295976e+00  4.5012036676990208e+00  4.5012122025994898e+00  4.2517633064152252e+00  4.2517761742817841e+00  4.0022975086125010e+00  4.0023147599682378e+00  3.7527976305715045e+00  3.7528193293961354e+00  3.5032548846717728e+00  3.5032811048990076e+00  3.2536603102655675e+00  3.2536911307029084e+00  3.0040047496166062e+00  3.0040402466366674e+00  2.7542788312736679e+00  2.7543190682604428e+00  2.5044729645770283e+00  2.5045179765166994e+00  2.2545773513042264e+00  2.2546271219109397e+00  2.0045820245129611e+00  2.0046364515291111e+00  1.7544769318396722e+00  1.7545357729244939e+00  1.5042520935542334e+00  1.5043148788404799e+00  1.2538978899963711e+00  1.2539637738979752e+00  1.0034055805841950e+00  1.0034730735375426e+00  7.5276825689147553e-01  7.5283469215951448e-01  5.0198266950115988e-01  5.0204299551425291e-01  2.5105302361094384e-01  2.5109656659650847e-01  0.0000000000000000e+00  0.0000000000000000e+00  7.2456678822100526e+00  7.2456252646613617e+00  6.9959531658837308e+00  6.9959155511969202e+00  6.7463103873735610e+00  6.7462777123014872e+00  6.4967298818308823e+00  6.4967020680092453e+00  6.2472022327738639e+00  6.2471791982125859e+00  5.9977182521972363e+00  5.9976999192974105e+00  5.7482689516629168e+00  5.7482552528168274e+00  5.4988455073682676e+00  5.4988363888269198e+00  5.2494392211833123e+00  5.2494346456350387e+00  5.0000414790429533e+00  5.0000414271839819e+00  4.7506437077203785e+00  4.7506481789825479e+00  4.5012373308061591e+00  4.5012463433171490e+00  4.2518137246256158e+00  4.2518273143989811e+00  4.0023641748240095e+00  4.0023823940979408e+00  3.7528798344343195e+00  3.7529027489874918e+00  3.5033516844360815e+00  3.5033793695914794e+00  3.2537704981622042e+00  3.2538030330247123e+00  3.0041268114995314e+00  3.0041642707276113e+00  2.7544109018067195e+00  2.7544533438380898e+00  2.5046127800965645e+00  2.5046602301365266e+00  2.2547222037422134e+00  2.2547746288030956e+00  2.0047287215480356e+00  2.0047859930504899e+00  1.7546217708870593e+00  1.7546836070682210e+00  1.5043908604166891e+00  1.5044567343815534e+00  1.2540258970286469e+00  1.2540948826135074e+00  1.0035177640770898e+00  1.0035882593482925e+00  7.5285935923714498e-01  7.5292854063235237e-01  5.0204753991098539e-01  5.0211013149496120e-01  2.5108708792038120e-01  2.5113207138162763e-01  0.0000000000000000e+00  0.0000000000000000e+00  6.9958375268921218e+00  6.9957981204112833e+00  7.2455431604237361e+00  7.2454985370542175e+00  6.7462056554501562e+00  6.7461714091266449e+00  6.4966375503102363e+00  6.4966083890403867e+00  6.2471235022868497e+00  6.2470993451911712e+00  5.9976540659850750e+00  5.9976348352755515e+00  5.7482200264334935e+00  5.7482056536561181e+00  5.4988123587294986e+00  5.4988027891038920e+00  5.2494221830723475e+00  5.2494173784005476e+00  5.0000407168191856e+00  5.0000406572653375e+00  4.7506592247479054e+00  4.7506639096674332e+00  4.5012689684525027e+00  4.5012784163528758e+00  4.2518611556778962e+00  4.2518754033085040e+00  4.0024268903984161e+00  4.0024459908822276e+00  3.7529571245566564e+00  3.7529811443790790e+00  3.5034426126298208e+00  3.5034716271755677e+00  3.2538738706309505e+00  3.2539079577868621e+00  3.0042411418756432e+00  3.0042803729633167e+00  2.7545343730089118e+00  2.7545787999211200e+00  2.5047432056584151e+00  2.5047928424513257e+00  2.2548569921087802e+00  2.2549117882690490e+00  2.0048648483563438e+00  2.0049246491669717e+00  1.7547557661995565e+00  1.7548202523327914e+00  1.5045188202817539e+00  1.5045874122753216e+00  1.2541435315727356e+00  1.2542152310252908e+00  1.0036204975711949e+00  1.0036936041502833e+00  7.5294250147722686e-01  7.5301405691863699e-01  5.0210655424951023e-01  5.0217109269058902e-01  2.5111799512225291e-01  2.5116420923202548e-01  0.0000000000000000e+00  0.0000000000000000e+00  6.9957313913036696e+00  6.9956903946032272e+00  7.2454289076329506e+00  7.2453825092075679e+00  6.7461093640186185e+00  6.7460737196946621e+00  6.4965525263638968e+00  6.4965221636126032e+00  6.2470508971862255e+00  6.2470257373019136e+00  5.9975947891429415e+00  5.9975747551365277e+00  5.7481747720463705e+00  5.7481597954655310e+00  5.4987816281184063e+00  5.4987716538180660e+00  5.2494063019219599e+00  5.2494012912782955e+00  5.0000398468778249e+00  5.0000397797631626e+00  4.7506733697407295e+00  4.7506782454482392e+00  4.5012979740971870e+00  4.5013078113027456e+00  4.2519047038036568e+00  4.2519195395625848e+00  4.0024844872808227e+00  4.0025043749673257e+00  3.7530280837180165e+00  3.7530530897128647e+00  3.5035260325452771e+00  3.5035562313473450e+00  3.2539686080540400e+00  3.2540040753130861e+00  3.0043457818879702e+00  3.0043865845963111e+00  2.7546471974451743e+00  2.7546933801301416e+00  2.5048621622999478e+00  2.5049137274306132e+00  2.2549796680137937e+00  2.2550365477944792e+00  2.0049884519300147e+00  2.0050504668454829e+00  1.7548771241082168e+00  1.7549439202650405e+00  1.5046343970586904e+00  1.5047053478391295e+00  1.2542494817051399e+00  1.2543235252925411e+00  1.0037127620068724e+00  1.0037881132511002e+00  7.5301696316116329e-01  7.5309054939875986e-01  5.0215927191089460e-01  5.0222546774160437e-01  2.5114554616735324e-01  2.5119280309529701e-01  0.0000000000000000e+00  0.0000000000000000e+00  6.9956363864974671e+00  6.9955940071130920e+00  7.2453268123803163e+00  6.7460230344128105e+00  6.7459861718694878e+00  6.4964761858134326e+00  6.4964447740834981e+00  6.2469856141566522e+00  6.2469595773147732e+00  5.9975414115438381e+00  5.9975206740290714e+00  5.7481339497550543e+00  5.7481184436934720e+00  5.4987538320560825e+00  5.4987435024109423e+00  5.2493918389161056e+00  5.2493866469736901e+00  5.0000388698185985e+00  5.0000387953384102e+00  4.7506858827419052e+00  4.7506909249677962e+00  4.5013238325283114e+00  4.5013340101518002e+00  4.2519436091936118e+00  4.2519589592672400e+00  4.0025359772263842e+00  4.0025565529313791e+00  3.7530915170873249e+00  3.7531173841538035e+00  3.5036005704687376e+00  3.5036318019130426e+00  3.2540531914688402e+00  3.2540898601307995e+00  3.0044391067730909e+00  3.0044812748726484e+00  2.7547476893773233e+00  2.7547953939107228e+00  2.5049679526005999e+00  2.5050211847639785e+00  2.2550885745598386e+00  2.2551472503417411e+00  2.0050979686686725e+00  2.0051618859354829e+00  1.7549844244346424e+00  1.7550531984910989e+00  1.5047363574468104e+00  1.5048093204754260e+00  1.2543427332932646e+00  1.2544187689991131e+00  1.0037937792707106e+00  1.0038710306693903e+00  7.5308220070089393e-01  7.5315749934509202e-01  5.0220536403955363e-01  5.0227295206243250e-01  2.5116959377085474e-01  2.5121772341816362e-01  0.0000000000000000e+00  0.0000000000000000e+00  6.9955538401165906e+00  6.9955102887837892e+00  7.2452382428643247e+00  6.7459479151758677e+00  6.7459100181299432e+00  6.4964096635894810e+00  6.4963773595834153e+00  6.2469286446535879e+00  6.2469018607554236e+00  5.9974947562655929e+00  5.9974734186552912e+00  5.7480981944235516e+00  5.7480822361383304e+00  5.4987294024101763e+00  5.4987187688176320e+00  5.2493790131325762e+00  5.2493736656498138e+00  5.0000377870563257e+00  5.0000377054516827e+00  4.7506965475085012e+00  4.7507017309878883e+00  4.5013461147281566e+00  4.5013565818999997e+00  4.2519772398565632e+00  4.2519930275733717e+00  4.0025805400568428e+00  4.0026017010350827e+00  3.7531464361327411e+00  3.7531730351440591e+00  3.5036650944043930e+00  3.5036972026951587e+00  3.2541263752512113e+00  3.2541640626630559e+00  3.0045197917454836e+00  3.0045631157441712e+00  2.7548344833357095e+00  2.7548834737542158e+00  2.5050592118558632e+00  2.5051138495227927e+00  2.2551823906687503e+00  2.2552425770429450e+00  2.0051921632407921e+00  2.0052576763472207e+00  1.7550765562326418e+00  1.7551469848340513e+00  1.5048237468501591e+00  1.5048983881670110e+00  1.2544225100698463e+00  1.2545002021812983e+00  1.0038629605611133e+00  1.0039417869827132e+00  7.5313780750052062e-01  7.5321452114443910e-01  5.0224458740071065e-01  5.0231332233026660e-01  2.5119003005687496e-01  2.5123887655393029e-01  0.0000000000000000e+00  0.0000000000000000e+00  6.9954848130766116e+00  6.9954403018989986e+00  6.7458850093106451e+00  6.7458462636210497e+00  6.4963538756133641e+00  6.4963208385674909e+00  6.2468807919433935e+0